  python dir          : /gpfs/pace1/project/chbe-medford/medford-share/gits/frozen/ben_espresso_8_24_2017/espresso
  espresso dir        : /gpfs/pace1/project/chbe-medford/medford-share/builds/espresso/5.1.r11289-pybeef/intel-17.0+mvapich2-2.2+mkl-11.3/espresso-5.1.r11289-pybeef/bin
  pseudo dir          : /gpfs/pace1/project/chbe-medford/medford-share/data/pseudos/SSSP_eff_PBE
  ase-espresso py git : GITVERSION



     Program PWSCF v.5.1rc2 starts on 22Sep2018 at 11:43:48 

     This program is part of the open-source Quantum ESPRESSO suite
     for quantum simulation of materials; please cite
         "P. Giannozzi et al., J. Phys.:Condens. Matter 21 395502 (2009);
          URL http://www.quantum-espresso.org", 
     in publications or presentations arising from this work. More details at
     http://www.quantum-espresso.org/quote

     Parallel version (MPI), running on     1 processors
     Reading input from pw.inp
     Message from routine read_cards :
     DEPRECATED: no units specified in CELL_PARAMETERS card

     Current dimensions of program PWSCF are:
     Max number of different atomic species (ntypx) = 10
     Max number of k-points (npk) =  40000
     Max angular momentum in pseudopotentials (lmaxx) =  3

     IMPORTANT: XC functional enforced from input :
     Exchange-correlation      = PBE ( 1  4  3  4 0)
     Any further DFT definition will be discarded
     Please, verify this is what you really want


     Subspace diagonalization in iterative solution of the eigenvalue problem:
     a serial algorithm will be used


 %%%%%%%%%%%%%%%%%%%%%%%%%%%%%%%%%%%%%%%%%%%%%%%%%%%%%%%%%%%%%%%%%%%%%%%%%%%%%%
     Error in routine check_atoms (1):
     atoms #   1 and #   9 overlap!
 %%%%%%%%%%%%%%%%%%%%%%%%%%%%%%%%%%%%%%%%%%%%%%%%%%%%%%%%%%%%%%%%%%%%%%%%%%%%%%

     stopping ...
  python dir          : /gpfs/pace1/project/chbe-medford/medford-share/gits/frozen/ben_espresso_8_24_2017/espresso
  espresso dir        : /gpfs/pace1/project/chbe-medford/medford-share/builds/espresso/5.1.r11289-pybeef/intel-17.0+mvapich2-2.2+mkl-11.3/espresso-5.1.r11289-pybeef/bin
  pseudo dir          : /gpfs/pace1/project/chbe-medford/medford-share/data/pseudos/SSSP_eff_PBE
  ase-espresso py git : GITVERSION



     Program PWSCF v.5.1rc2 starts on 22Sep2018 at 20:11:32 

     This program is part of the open-source Quantum ESPRESSO suite
     for quantum simulation of materials; please cite
         "P. Giannozzi et al., J. Phys.:Condens. Matter 21 395502 (2009);
          URL http://www.quantum-espresso.org", 
     in publications or presentations arising from this work. More details at
     http://www.quantum-espresso.org/quote

     Parallel version (MPI), running on     1 processors
     Reading input from pw.inp
     Message from routine read_cards :
     DEPRECATED: no units specified in CELL_PARAMETERS card

     Current dimensions of program PWSCF are:
     Max number of different atomic species (ntypx) = 10
     Max number of k-points (npk) =  40000
     Max angular momentum in pseudopotentials (lmaxx) =  3

     IMPORTANT: XC functional enforced from input :
     Exchange-correlation      = PBE ( 1  4  3  4 0)
     Any further DFT definition will be discarded
     Please, verify this is what you really want


     Subspace diagonalization in iterative solution of the eigenvalue problem:
     a serial algorithm will be used


 %%%%%%%%%%%%%%%%%%%%%%%%%%%%%%%%%%%%%%%%%%%%%%%%%%%%%%%%%%%%%%%%%%%%%%%%%%%%%%
     Error in routine check_atoms (1):
     atoms #   1 and #   9 overlap!
 %%%%%%%%%%%%%%%%%%%%%%%%%%%%%%%%%%%%%%%%%%%%%%%%%%%%%%%%%%%%%%%%%%%%%%%%%%%%%%

     stopping ...
  python dir          : /gpfs/pace1/project/chbe-medford/medford-share/gits/frozen/ben_espresso_8_24_2017/espresso
  espresso dir        : /gpfs/pace1/project/chbe-medford/medford-share/builds/espresso/5.1.r11289-pybeef/intel-17.0+mvapich2-2.2+mkl-11.3/espresso-5.1.r11289-pybeef/bin
  pseudo dir          : /gpfs/pace1/project/chbe-medford/medford-share/data/pseudos/SSSP_eff_PBE
  ase-espresso py git : GITVERSION



     Program PWSCF v.5.1rc2 starts on 22Sep2018 at 20:12:18 

     This program is part of the open-source Quantum ESPRESSO suite
     for quantum simulation of materials; please cite
         "P. Giannozzi et al., J. Phys.:Condens. Matter 21 395502 (2009);
          URL http://www.quantum-espresso.org", 
     in publications or presentations arising from this work. More details at
     http://www.quantum-espresso.org/quote

     Parallel version (MPI), running on     1 processors
     Reading input from pw.inp
     Message from routine read_cards :
     DEPRECATED: no units specified in CELL_PARAMETERS card

     Current dimensions of program PWSCF are:
     Max number of different atomic species (ntypx) = 10
     Max number of k-points (npk) =  40000
     Max angular momentum in pseudopotentials (lmaxx) =  3

     IMPORTANT: XC functional enforced from input :
     Exchange-correlation      = PBE ( 1  4  3  4 0)
     Any further DFT definition will be discarded
     Please, verify this is what you really want

               file Rh.UPF: wavefunction(s)  4S 5S 4D renormalized

     Subspace diagonalization in iterative solution of the eigenvalue problem:
     a serial algorithm will be used


 %%%%%%%%%%%%%%%%%%%%%%%%%%%%%%%%%%%%%%%%%%%%%%%%%%%%%%%%%%%%%%%%%%%%%%%%%%%%%%
     Error in routine check_atoms (1):
     atoms #   1 and #   9 overlap!
 %%%%%%%%%%%%%%%%%%%%%%%%%%%%%%%%%%%%%%%%%%%%%%%%%%%%%%%%%%%%%%%%%%%%%%%%%%%%%%

     stopping ...
  python dir          : /gpfs/pace1/project/chbe-medford/medford-share/gits/frozen/ben_espresso_8_24_2017/espresso
  espresso dir        : /gpfs/pace1/project/chbe-medford/medford-share/builds/espresso/5.1.r11289-pybeef/intel-17.0+mvapich2-2.2+mkl-11.3/espresso-5.1.r11289-pybeef/bin
  pseudo dir          : /gpfs/pace1/project/chbe-medford/medford-share/data/pseudos/SSSP_eff_PBE
  ase-espresso py git : GITVERSION



     Program PWSCF v.5.1rc2 starts on 22Sep2018 at 20:21: 0 

     This program is part of the open-source Quantum ESPRESSO suite
     for quantum simulation of materials; please cite
         "P. Giannozzi et al., J. Phys.:Condens. Matter 21 395502 (2009);
          URL http://www.quantum-espresso.org", 
     in publications or presentations arising from this work. More details at
     http://www.quantum-espresso.org/quote

     Parallel version (MPI), running on     1 processors
     Reading input from pw.inp
     Message from routine read_cards :
     DEPRECATED: no units specified in CELL_PARAMETERS card

     Current dimensions of program PWSCF are:
     Max number of different atomic species (ntypx) = 10
     Max number of k-points (npk) =  40000
     Max angular momentum in pseudopotentials (lmaxx) =  3

     IMPORTANT: XC functional enforced from input :
     Exchange-correlation      = PBE ( 1  4  3  4 0)
     Any further DFT definition will be discarded
     Please, verify this is what you really want


     Subspace diagonalization in iterative solution of the eigenvalue problem:
     a serial algorithm will be used


 %%%%%%%%%%%%%%%%%%%%%%%%%%%%%%%%%%%%%%%%%%%%%%%%%%%%%%%%%%%%%%%%%%%%%%%%%%%%%%
     Error in routine check_atoms (1):
     atoms #   1 and #   9 overlap!
 %%%%%%%%%%%%%%%%%%%%%%%%%%%%%%%%%%%%%%%%%%%%%%%%%%%%%%%%%%%%%%%%%%%%%%%%%%%%%%

     stopping ...
  python dir          : /gpfs/pace1/project/chbe-medford/medford-share/gits/frozen/ben_espresso_8_24_2017/espresso
  espresso dir        : /gpfs/pace1/project/chbe-medford/medford-share/builds/espresso/5.1.r11289-pybeef/intel-17.0+mvapich2-2.2+mkl-11.3/espresso-5.1.r11289-pybeef/bin
  pseudo dir          : /gpfs/pace1/project/chbe-medford/medford-share/data/pseudos/SSSP_eff_PBE
  ase-espresso py git : GITVERSION



     Program PWSCF v.5.1rc2 starts on 25Sep2018 at  0:55:43 

     This program is part of the open-source Quantum ESPRESSO suite
     for quantum simulation of materials; please cite
         "P. Giannozzi et al., J. Phys.:Condens. Matter 21 395502 (2009);
          URL http://www.quantum-espresso.org", 
     in publications or presentations arising from this work. More details at
     http://www.quantum-espresso.org/quote

     Parallel version (MPI), running on     1 processors
     Reading input from pw.inp
     Message from routine read_cards :
     DEPRECATED: no units specified in CELL_PARAMETERS card

     Current dimensions of program PWSCF are:
     Max number of different atomic species (ntypx) = 10
     Max number of k-points (npk) =  40000
     Max angular momentum in pseudopotentials (lmaxx) =  3

     IMPORTANT: XC functional enforced from input :
     Exchange-correlation      = PBE ( 1  4  3  4 0)
     Any further DFT definition will be discarded
     Please, verify this is what you really want


     Subspace diagonalization in iterative solution of the eigenvalue problem:
     a serial algorithm will be used

 
     G-vector sticks info
     --------------------
     sticks:   dense  smooth     PW     G-vecs:    dense   smooth      PW
     Sum       10177    3631    955              2238991   474815   66025
 


     bravais-lattice index     =            0
     lattice parameter (alat)  =       1.8897  a.u.
     unit-cell volume          =   22047.4896 (a.u.)^3
     number of atoms/cell      =           56
     number of atomic types    =            4
     number of electrons       =       594.00
     number of Kohn-Sham states=          307
     kinetic-energy cutoff     =      29.3995  Ry
     charge density cutoff     =     330.7439  Ry
     convergence threshold     =      7.3E-08
     mixing beta               =       0.0500
     number of iterations used =            8  local-TF  mixing
     Exchange-correlation      = PBE ( 1  4  3  4 0)
     nstep                     =           50


     celldm(1)=   1.889726  celldm(2)=   0.000000  celldm(3)=   0.000000
     celldm(4)=   0.000000  celldm(5)=   0.000000  celldm(6)=   0.000000

     crystal axes: (cart. coord. in units of alat)
               a(1) = (  11.181055   0.000000   0.000000 )  
               a(2) = (  -5.590528   9.683078   0.000000 )  
               a(3) = (   0.000000   0.000000  30.176323 )  

     reciprocal axes: (cart. coord. in units 2 pi/alat)
               b(1) = (  0.089437  0.051636  0.000000 )  
               b(2) = (  0.000000  0.103273  0.000000 )  
               b(3) = (  0.000000  0.000000  0.033139 )  


     PseudoPot. # 1 for Pt read from file:
     /gpfs/pace1/project/chbe-medford/medford-share/data/pseudos/SSSP_eff_PBE/Pt.UPF
     MD5 check sum: f09d6de1a584b5a045c4fc126da2d0c4
     Pseudo is Ultrasoft + core correction, Zval = 16.0
     Generated by new atomic code, or converted to UPF format
     Using radial grid of  985 points,  6 beta functions with: 
                l(1) =   0
                l(2) =   0
                l(3) =   1
                l(4) =   1
                l(5) =   2
                l(6) =   2
     Q(r) pseudized with  8 coefficients,  rinner =    1.300   1.300   1.300
                                                       1.300   1.300

     PseudoPot. # 2 for O  read from file:
     /gpfs/pace1/project/chbe-medford/medford-share/data/pseudos/SSSP_eff_PBE/O.UPF
     MD5 check sum: 734c27235a0248c51dbae37a1fbe46ec
     Pseudo is Ultrasoft + core correction, Zval =  6.0
     Generated by new atomic code, or converted to UPF format
     Using radial grid of  737 points,  5 beta functions with: 
                l(1) =   0
                l(2) =   0
                l(3) =   1
                l(4) =   1
                l(5) =   2
     Q(r) pseudized with  8 coefficients,  rinner =    0.900   0.900   0.900
                                                       0.900   0.900

     PseudoPot. # 3 for C  read from file:
     /gpfs/pace1/project/chbe-medford/medford-share/data/pseudos/SSSP_eff_PBE/C.UPF
     MD5 check sum: d1aef80898a10debaa0f26306b886e00
     Pseudo is Ultrasoft + core correction, Zval =  4.0
     Generated by new atomic code, or converted to UPF format
     Using radial grid of  721 points,  4 beta functions with: 
                l(1) =   0
                l(2) =   0
                l(3) =   1
                l(4) =   1
     Q(r) pseudized with  8 coefficients,  rinner =    1.100   1.100   1.100


     PseudoPot. # 4 for  H read from file:
     /gpfs/pace1/project/chbe-medford/medford-share/data/pseudos/SSSP_eff_PBE/H.UPF
     MD5 check sum: 36633979392af7100e6f6632747262d3
     Pseudo is Ultrasoft, Zval =  1.0
     Generated using "atomic" code by A. Dal Corso  v.5.0.99 svn rev. 10869
     Using radial grid of  929 points,  2 beta functions with: 
                l(1) =   0
                l(2) =   0
     Q(r) pseudized with 0 coefficients 


     atomic species   valence    mass     pseudopotential
        Pt1           16.00   195.08000     Pt( 1.00)
        O1             6.00    15.99940     O ( 1.00)
        C1             4.00    12.01100     C ( 1.00)
        H1             1.00     1.00794      H( 1.00)

     No symmetry found



   Cartesian axes

     site n.     atom                  positions (alat units)
         1           Pt1 tau(   1) = (   0.0000000   0.0000000  10.0000000  )
         2           Pt1 tau(   2) = (   1.3976319   0.8069232  12.2823233  )
         3           Pt1 tau(   3) = (  -1.3976319   2.4207695  10.0000000  )
         4           Pt1 tau(   4) = (   0.0000000   3.2276926  12.2823233  )
         5           Pt1 tau(   5) = (  -2.7952638   4.8415390  10.0000000  )
         6           Pt1 tau(   6) = (  -1.3976319   5.6484621  12.2823233  )
         7           Pt1 tau(   7) = (  -4.1928957   7.2623084  10.0000000  )
         8           Pt1 tau(   8) = (  -2.7952638   8.0692316  12.2823233  )
         9           Pt1 tau(   9) = (   2.7952638   0.0000000  10.0000000  )
        10           Pt1 tau(  10) = (   4.1928957   0.8069232  12.2823233  )
        11           Pt1 tau(  11) = (   1.3976319   2.4207695  10.0000000  )
        12           Pt1 tau(  12) = (   2.7952638   3.2276926  12.2823233  )
        13           Pt1 tau(  13) = (   0.0000000   4.8415390  10.0000000  )
        14           Pt1 tau(  14) = (   1.3976319   5.6484621  12.2823233  )
        15           Pt1 tau(  15) = (  -1.3976319   7.2623084  10.0000000  )
        16           Pt1 tau(  16) = (   0.0000000   8.0692316  12.2823233  )
        17           Pt1 tau(  17) = (   5.5905276   0.0000000  10.0000000  )
        18           Pt1 tau(  18) = (   6.9881595   0.8069232  12.2823233  )
        19           Pt1 tau(  19) = (   4.1928957   2.4207695  10.0000000  )
        20           Pt1 tau(  20) = (   5.5905276   3.2276926  12.2823233  )
        21           Pt1 tau(  21) = (   2.7952638   4.8415390  10.0000000  )
        22           Pt1 tau(  22) = (   4.1928957   5.6484621  12.2823233  )
        23           Pt1 tau(  23) = (   1.3976319   7.2623084  10.0000000  )
        24           Pt1 tau(  24) = (   2.7952638   8.0692316  12.2823233  )
        25           Pt1 tau(  25) = (   8.3857915   0.0000000  10.0000000  )
        26           Pt1 tau(  26) = (   9.7834234   0.8069232  12.2823233  )
        27           Pt1 tau(  27) = (   6.9881595   2.4207695  10.0000000  )
        28           Pt1 tau(  28) = (   8.3857915   3.2276926  12.2823233  )
        29           Pt1 tau(  29) = (   5.5905276   4.8415390  10.0000000  )
        30           Pt1 tau(  30) = (   6.9881595   5.6484621  12.2823233  )
        31           Pt1 tau(  31) = (   4.1928957   7.2623084  10.0000000  )
        32           Pt1 tau(  32) = (   5.5905276   8.0692316  12.2823233  )
        33           O1  tau(  33) = (   0.9082000   4.6449000  19.5630233  )
        34           O1  tau(  34) = (   3.5989000   4.4888000  19.3705233  )
        35           O1  tau(  35) = (  -0.5726000   6.7609000  18.8447233  )
        36           O1  tau(  36) = (   4.1795000   7.2532000  18.9369233  )
        37           O1  tau(  37) = (   0.9549000   6.1357000  15.7713233  )
        38           O1  tau(  38) = (   5.0000000   5.0000000  16.2823233  )
        39           O1  tau(  39) = (  -0.6468000   4.9287000  16.8240233  )
        40           O1  tau(  40) = (   6.3017000   6.0043000  17.8518233  )
        41           C1  tau(  41) = (   1.5962000   5.7862000  19.0255233  )
        42           C1  tau(  42) = (   2.9046000   5.2752000  18.3918233  )
        43           C1  tau(  43) = (   0.6343000   6.5507000  18.1072233  )
        44           C1  tau(  44) = (   3.8877000   6.3426000  17.8889233  )
        45           C1  tau(  45) = (   0.2349000   5.7779000  16.8628233  )
        46           C1  tau(  46) = (   5.1982000   5.7776000  17.3763233  )
        47           H1  tau(  47) = (   1.8207000   6.4123000  19.8978233  )
        48           H1  tau(  48) = (   2.6689000   4.5759000  17.5818233  )
        49           H1  tau(  49) = (   1.0404000   7.5281000  17.8275233  )
        50           H1  tau(  50) = (   3.4314000   6.9220000  17.0785233  )
        51           H1  tau(  51) = (   1.5174000   4.1994000  20.1763233  )
        52           H1  tau(  52) = (   3.8363000   5.0788000  20.1065233  )
        53           H1  tau(  53) = (  -1.1353000   7.3547000  18.3184233  )
        54           H1  tau(  54) = (   4.6848000   7.9907000  18.5542233  )
        55           H1  tau(  55) = (   0.6850000   5.6330000  14.9733233  )
        56           H1  tau(  56) = (   5.8424000   4.6397000  15.9318233  )

     number of k points=    20  Fermi-Dirac smearing, width (Ry)=  0.0073
                       cart. coord. in units 2pi/alat
        k(    1) = (   0.0000000   0.0000000   0.0000000), wk =   0.0555556
        k(    2) = (   0.0000000   0.0172122   0.0000000), wk =   0.1111111
        k(    3) = (   0.0000000   0.0344243   0.0000000), wk =   0.1111111
        k(    4) = (   0.0000000  -0.0516365   0.0000000), wk =   0.0555556
        k(    5) = (   0.0149062   0.0258182   0.0000000), wk =   0.1111111
        k(    6) = (   0.0149062   0.0430304   0.0000000), wk =   0.1111111
        k(    7) = (   0.0298123   0.0516365   0.0000000), wk =   0.1111111
        k(    8) = (  -0.0149062   0.0086061   0.0000000), wk =   0.1111111
        k(    9) = (   0.0149062   0.0086061   0.0000000), wk =   0.1111111
        k(   10) = (  -0.0298123   0.0172122   0.0000000), wk =   0.1111111
        k(   11) = (   0.0298123   0.0172122   0.0000000), wk =   0.1111111
        k(   12) = (   0.0447185  -0.0258182   0.0000000), wk =   0.0555556
        k(   13) = (  -0.0447185  -0.0258182   0.0000000), wk =   0.0555556
        k(   14) = (  -0.0149062   0.0258182   0.0000000), wk =   0.1111111
        k(   15) = (   0.0298123   0.0000000   0.0000000), wk =   0.1111111
        k(   16) = (  -0.0149062   0.0430304   0.0000000), wk =   0.1111111
        k(   17) = (  -0.0298123   0.0344243   0.0000000), wk =   0.1111111
        k(   18) = (   0.0447185   0.0086061   0.0000000), wk =   0.1111111
        k(   19) = (  -0.0298123  -0.0344243   0.0000000), wk =   0.1111111
        k(   20) = (   0.0447185  -0.0086061   0.0000000), wk =   0.1111111

     Dense  grid:  2238991 G-vectors     FFT dimensions: ( 125, 125, 360)

     Smooth grid:   474815 G-vectors     FFT dimensions: (  75,  75, 200)

     Largest allocated arrays     est. size (Mb)     dimensions
        Kohn-Sham Wavefunctions       278.27 Mb     (   59403,  307)
        NL pseudopotentials           678.00 Mb     (   59403,  748)
        Each V/rho on FFT grid         85.83 Mb     ( 5625000)
        Each G-vector array            17.08 Mb     ( 2238991)
        G-vector shells                 0.61 Mb     (   80313)
     Largest temporary arrays     est. size (Mb)     dimensions
        Each subspace H/S matrix        1.44 Mb     (     307,  307)
        Each <psi_i|beta_j> matrix      3.50 Mb     (     748,  307)
        Arrays for rho mixing         686.65 Mb     ( 5625000,    8)

     Initial potential from superposition of free atoms
     Check: negative starting charge=   -5.883358

     starting charge  577.99929, renormalised to  594.00000

     negative rho (up, down):  6.046E+00 0.000E+00
     Starting wfc are  450 randomized atomic wfcs
  python dir          : /gpfs/pace1/project/chbe-medford/medford-share/gits/frozen/ben_espresso_8_24_2017/espresso
  espresso dir        : /gpfs/pace1/project/chbe-medford/medford-share/builds/espresso/5.1.r11289-pybeef/intel-17.0+mvapich2-2.2+mkl-11.3/espresso-5.1.r11289-pybeef/bin
  pseudo dir          : /gpfs/pace1/project/chbe-medford/medford-share/data/pseudos/SSSP_eff_PBE
  ase-espresso py git : GITVERSION



     Program PWSCF v.5.1rc2 starts on 25Sep2018 at  0:59:59 

     This program is part of the open-source Quantum ESPRESSO suite
     for quantum simulation of materials; please cite
         "P. Giannozzi et al., J. Phys.:Condens. Matter 21 395502 (2009);
          URL http://www.quantum-espresso.org", 
     in publications or presentations arising from this work. More details at
     http://www.quantum-espresso.org/quote

     Parallel version (MPI), running on     1 processors
     Reading input from pw.inp
     Message from routine read_cards :
     DEPRECATED: no units specified in CELL_PARAMETERS card

     Current dimensions of program PWSCF are:
     Max number of different atomic species (ntypx) = 10
     Max number of k-points (npk) =  40000
     Max angular momentum in pseudopotentials (lmaxx) =  3

     IMPORTANT: XC functional enforced from input :
     Exchange-correlation      = PBE ( 1  4  3  4 0)
     Any further DFT definition will be discarded
     Please, verify this is what you really want


     Subspace diagonalization in iterative solution of the eigenvalue problem:
     a serial algorithm will be used

 
     G-vector sticks info
     --------------------
     sticks:   dense  smooth     PW     G-vecs:    dense   smooth      PW
     Sum       10177    3631    955              2238991   474815   66025
 


     bravais-lattice index     =            0
     lattice parameter (alat)  =       1.8897  a.u.
     unit-cell volume          =   22047.4896 (a.u.)^3
     number of atoms/cell      =           56
     number of atomic types    =            4
     number of electrons       =       594.00
     number of Kohn-Sham states=          307
     kinetic-energy cutoff     =      29.3995  Ry
     charge density cutoff     =     330.7439  Ry
     convergence threshold     =      7.3E-08
     mixing beta               =       0.0500
     number of iterations used =            8  local-TF  mixing
     Exchange-correlation      = PBE ( 1  4  3  4 0)
     nstep                     =           50


     celldm(1)=   1.889726  celldm(2)=   0.000000  celldm(3)=   0.000000
     celldm(4)=   0.000000  celldm(5)=   0.000000  celldm(6)=   0.000000

     crystal axes: (cart. coord. in units of alat)
               a(1) = (  11.181055   0.000000   0.000000 )  
               a(2) = (  -5.590528   9.683078   0.000000 )  
               a(3) = (   0.000000   0.000000  30.176323 )  

     reciprocal axes: (cart. coord. in units 2 pi/alat)
               b(1) = (  0.089437  0.051636  0.000000 )  
               b(2) = (  0.000000  0.103273  0.000000 )  
               b(3) = (  0.000000  0.000000  0.033139 )  


     PseudoPot. # 1 for Pt read from file:
     /gpfs/pace1/project/chbe-medford/medford-share/data/pseudos/SSSP_eff_PBE/Pt.UPF
     MD5 check sum: f09d6de1a584b5a045c4fc126da2d0c4
     Pseudo is Ultrasoft + core correction, Zval = 16.0
     Generated by new atomic code, or converted to UPF format
     Using radial grid of  985 points,  6 beta functions with: 
                l(1) =   0
                l(2) =   0
                l(3) =   1
                l(4) =   1
                l(5) =   2
                l(6) =   2
     Q(r) pseudized with  8 coefficients,  rinner =    1.300   1.300   1.300
                                                       1.300   1.300

     PseudoPot. # 2 for O  read from file:
     /gpfs/pace1/project/chbe-medford/medford-share/data/pseudos/SSSP_eff_PBE/O.UPF
     MD5 check sum: 734c27235a0248c51dbae37a1fbe46ec
     Pseudo is Ultrasoft + core correction, Zval =  6.0
     Generated by new atomic code, or converted to UPF format
     Using radial grid of  737 points,  5 beta functions with: 
                l(1) =   0
                l(2) =   0
                l(3) =   1
                l(4) =   1
                l(5) =   2
     Q(r) pseudized with  8 coefficients,  rinner =    0.900   0.900   0.900
                                                       0.900   0.900

     PseudoPot. # 3 for C  read from file:
     /gpfs/pace1/project/chbe-medford/medford-share/data/pseudos/SSSP_eff_PBE/C.UPF
     MD5 check sum: d1aef80898a10debaa0f26306b886e00
     Pseudo is Ultrasoft + core correction, Zval =  4.0
     Generated by new atomic code, or converted to UPF format
     Using radial grid of  721 points,  4 beta functions with: 
                l(1) =   0
                l(2) =   0
                l(3) =   1
                l(4) =   1
     Q(r) pseudized with  8 coefficients,  rinner =    1.100   1.100   1.100


     PseudoPot. # 4 for  H read from file:
     /gpfs/pace1/project/chbe-medford/medford-share/data/pseudos/SSSP_eff_PBE/H.UPF
     MD5 check sum: 36633979392af7100e6f6632747262d3
     Pseudo is Ultrasoft, Zval =  1.0
     Generated using "atomic" code by A. Dal Corso  v.5.0.99 svn rev. 10869
     Using radial grid of  929 points,  2 beta functions with: 
                l(1) =   0
                l(2) =   0
     Q(r) pseudized with 0 coefficients 


     atomic species   valence    mass     pseudopotential
        Pt1           16.00   195.08000     Pt( 1.00)
        O1             6.00    15.99940     O ( 1.00)
        C1             4.00    12.01100     C ( 1.00)
        H1             1.00     1.00794      H( 1.00)

     No symmetry found



   Cartesian axes

     site n.     atom                  positions (alat units)
         1           Pt1 tau(   1) = (   0.0000000   0.0000000  10.0000000  )
         2           Pt1 tau(   2) = (   1.3976319   0.8069232  12.2823233  )
         3           Pt1 tau(   3) = (  -1.3976319   2.4207695  10.0000000  )
         4           Pt1 tau(   4) = (   0.0000000   3.2276926  12.2823233  )
         5           Pt1 tau(   5) = (  -2.7952638   4.8415390  10.0000000  )
         6           Pt1 tau(   6) = (  -1.3976319   5.6484621  12.2823233  )
         7           Pt1 tau(   7) = (  -4.1928957   7.2623084  10.0000000  )
         8           Pt1 tau(   8) = (  -2.7952638   8.0692316  12.2823233  )
         9           Pt1 tau(   9) = (   2.7952638   0.0000000  10.0000000  )
        10           Pt1 tau(  10) = (   4.1928957   0.8069232  12.2823233  )
        11           Pt1 tau(  11) = (   1.3976319   2.4207695  10.0000000  )
        12           Pt1 tau(  12) = (   2.7952638   3.2276926  12.2823233  )
        13           Pt1 tau(  13) = (   0.0000000   4.8415390  10.0000000  )
        14           Pt1 tau(  14) = (   1.3976319   5.6484621  12.2823233  )
        15           Pt1 tau(  15) = (  -1.3976319   7.2623084  10.0000000  )
        16           Pt1 tau(  16) = (   0.0000000   8.0692316  12.2823233  )
        17           Pt1 tau(  17) = (   5.5905276   0.0000000  10.0000000  )
        18           Pt1 tau(  18) = (   6.9881595   0.8069232  12.2823233  )
        19           Pt1 tau(  19) = (   4.1928957   2.4207695  10.0000000  )
        20           Pt1 tau(  20) = (   5.5905276   3.2276926  12.2823233  )
        21           Pt1 tau(  21) = (   2.7952638   4.8415390  10.0000000  )
        22           Pt1 tau(  22) = (   4.1928957   5.6484621  12.2823233  )
        23           Pt1 tau(  23) = (   1.3976319   7.2623084  10.0000000  )
        24           Pt1 tau(  24) = (   2.7952638   8.0692316  12.2823233  )
        25           Pt1 tau(  25) = (   8.3857915   0.0000000  10.0000000  )
        26           Pt1 tau(  26) = (   9.7834234   0.8069232  12.2823233  )
        27           Pt1 tau(  27) = (   6.9881595   2.4207695  10.0000000  )
        28           Pt1 tau(  28) = (   8.3857915   3.2276926  12.2823233  )
        29           Pt1 tau(  29) = (   5.5905276   4.8415390  10.0000000  )
        30           Pt1 tau(  30) = (   6.9881595   5.6484621  12.2823233  )
        31           Pt1 tau(  31) = (   4.1928957   7.2623084  10.0000000  )
        32           Pt1 tau(  32) = (   5.5905276   8.0692316  12.2823233  )
        33           O1  tau(  33) = (   0.9082000   4.6449000  19.5630233  )
        34           O1  tau(  34) = (   3.5989000   4.4888000  19.3705233  )
        35           O1  tau(  35) = (  -0.5726000   6.7609000  18.8447233  )
        36           O1  tau(  36) = (   4.1795000   7.2532000  18.9369233  )
        37           O1  tau(  37) = (   0.9549000   6.1357000  15.7713233  )
        38           O1  tau(  38) = (   5.0000000   5.0000000  16.2823233  )
        39           O1  tau(  39) = (  -0.6468000   4.9287000  16.8240233  )
        40           O1  tau(  40) = (   6.3017000   6.0043000  17.8518233  )
        41           C1  tau(  41) = (   1.5962000   5.7862000  19.0255233  )
        42           C1  tau(  42) = (   2.9046000   5.2752000  18.3918233  )
        43           C1  tau(  43) = (   0.6343000   6.5507000  18.1072233  )
        44           C1  tau(  44) = (   3.8877000   6.3426000  17.8889233  )
        45           C1  tau(  45) = (   0.2349000   5.7779000  16.8628233  )
        46           C1  tau(  46) = (   5.1982000   5.7776000  17.3763233  )
        47           H1  tau(  47) = (   1.8207000   6.4123000  19.8978233  )
        48           H1  tau(  48) = (   2.6689000   4.5759000  17.5818233  )
        49           H1  tau(  49) = (   1.0404000   7.5281000  17.8275233  )
        50           H1  tau(  50) = (   3.4314000   6.9220000  17.0785233  )
        51           H1  tau(  51) = (   1.5174000   4.1994000  20.1763233  )
        52           H1  tau(  52) = (   3.8363000   5.0788000  20.1065233  )
        53           H1  tau(  53) = (  -1.1353000   7.3547000  18.3184233  )
        54           H1  tau(  54) = (   4.6848000   7.9907000  18.5542233  )
        55           H1  tau(  55) = (   0.6850000   5.6330000  14.9733233  )
        56           H1  tau(  56) = (   5.8424000   4.6397000  15.9318233  )

     number of k points=    20  Fermi-Dirac smearing, width (Ry)=  0.0073
                       cart. coord. in units 2pi/alat
        k(    1) = (   0.0000000   0.0000000   0.0000000), wk =   0.0555556
        k(    2) = (   0.0000000   0.0172122   0.0000000), wk =   0.1111111
        k(    3) = (   0.0000000   0.0344243   0.0000000), wk =   0.1111111
        k(    4) = (   0.0000000  -0.0516365   0.0000000), wk =   0.0555556
        k(    5) = (   0.0149062   0.0258182   0.0000000), wk =   0.1111111
        k(    6) = (   0.0149062   0.0430304   0.0000000), wk =   0.1111111
        k(    7) = (   0.0298123   0.0516365   0.0000000), wk =   0.1111111
        k(    8) = (  -0.0149062   0.0086061   0.0000000), wk =   0.1111111
        k(    9) = (   0.0149062   0.0086061   0.0000000), wk =   0.1111111
        k(   10) = (  -0.0298123   0.0172122   0.0000000), wk =   0.1111111
        k(   11) = (   0.0298123   0.0172122   0.0000000), wk =   0.1111111
        k(   12) = (   0.0447185  -0.0258182   0.0000000), wk =   0.0555556
        k(   13) = (  -0.0447185  -0.0258182   0.0000000), wk =   0.0555556
        k(   14) = (  -0.0149062   0.0258182   0.0000000), wk =   0.1111111
        k(   15) = (   0.0298123   0.0000000   0.0000000), wk =   0.1111111
        k(   16) = (  -0.0149062   0.0430304   0.0000000), wk =   0.1111111
        k(   17) = (  -0.0298123   0.0344243   0.0000000), wk =   0.1111111
        k(   18) = (   0.0447185   0.0086061   0.0000000), wk =   0.1111111
        k(   19) = (  -0.0298123  -0.0344243   0.0000000), wk =   0.1111111
        k(   20) = (   0.0447185  -0.0086061   0.0000000), wk =   0.1111111

     Dense  grid:  2238991 G-vectors     FFT dimensions: ( 125, 125, 360)

     Smooth grid:   474815 G-vectors     FFT dimensions: (  75,  75, 200)

     Largest allocated arrays     est. size (Mb)     dimensions
        Kohn-Sham Wavefunctions       278.27 Mb     (   59403,  307)
        NL pseudopotentials           678.00 Mb     (   59403,  748)
        Each V/rho on FFT grid         85.83 Mb     ( 5625000)
        Each G-vector array            17.08 Mb     ( 2238991)
        G-vector shells                 0.61 Mb     (   80313)
     Largest temporary arrays     est. size (Mb)     dimensions
        Each subspace H/S matrix        1.44 Mb     (     307,  307)
        Each <psi_i|beta_j> matrix      3.50 Mb     (     748,  307)
        Arrays for rho mixing         686.65 Mb     ( 5625000,    8)

     Initial potential from superposition of free atoms
     Check: negative starting charge=   -5.883358

     starting charge  577.99929, renormalised to  594.00000

     negative rho (up, down):  6.046E+00 0.000E+00
     Starting wfc are  450 randomized atomic wfcs
  python dir          : /gpfs/pace1/project/chbe-medford/medford-share/gits/frozen/ben_espresso_8_24_2017/espresso
  espresso dir        : /gpfs/pace1/project/chbe-medford/medford-share/builds/espresso/5.1.r11289-pybeef/intel-17.0+mvapich2-2.2+mkl-11.3/espresso-5.1.r11289-pybeef/bin
  pseudo dir          : /gpfs/pace1/project/chbe-medford/medford-share/data/pseudos/SSSP_eff_PBE
  ase-espresso py git : GITVERSION



     Program PWSCF v.5.1rc2 starts on 25Sep2018 at  1: 3:58 

     This program is part of the open-source Quantum ESPRESSO suite
     for quantum simulation of materials; please cite
         "P. Giannozzi et al., J. Phys.:Condens. Matter 21 395502 (2009);
          URL http://www.quantum-espresso.org", 
     in publications or presentations arising from this work. More details at
     http://www.quantum-espresso.org/quote

     Parallel version (MPI), running on     1 processors
     Reading input from pw.inp
     Message from routine read_cards :
     DEPRECATED: no units specified in CELL_PARAMETERS card

     Current dimensions of program PWSCF are:
     Max number of different atomic species (ntypx) = 10
     Max number of k-points (npk) =  40000
     Max angular momentum in pseudopotentials (lmaxx) =  3

     IMPORTANT: XC functional enforced from input :
     Exchange-correlation      = PBE ( 1  4  3  4 0)
     Any further DFT definition will be discarded
     Please, verify this is what you really want


     Subspace diagonalization in iterative solution of the eigenvalue problem:
     a serial algorithm will be used

 
     G-vector sticks info
     --------------------
     sticks:   dense  smooth     PW     G-vecs:    dense   smooth      PW
     Sum       10177    3631    955              2238991   474815   66025
 


     bravais-lattice index     =            0
     lattice parameter (alat)  =       1.8897  a.u.
     unit-cell volume          =   22047.4896 (a.u.)^3
     number of atoms/cell      =           56
     number of atomic types    =            4
     number of electrons       =       594.00
     number of Kohn-Sham states=          307
     kinetic-energy cutoff     =      29.3995  Ry
     charge density cutoff     =     330.7439  Ry
     convergence threshold     =      7.3E-08
     mixing beta               =       0.0500
     number of iterations used =            8  local-TF  mixing
     Exchange-correlation      = PBE ( 1  4  3  4 0)
     nstep                     =           50


     celldm(1)=   1.889726  celldm(2)=   0.000000  celldm(3)=   0.000000
     celldm(4)=   0.000000  celldm(5)=   0.000000  celldm(6)=   0.000000

     crystal axes: (cart. coord. in units of alat)
               a(1) = (  11.181055   0.000000   0.000000 )  
               a(2) = (  -5.590528   9.683078   0.000000 )  
               a(3) = (   0.000000   0.000000  30.176323 )  

     reciprocal axes: (cart. coord. in units 2 pi/alat)
               b(1) = (  0.089437  0.051636  0.000000 )  
               b(2) = (  0.000000  0.103273  0.000000 )  
               b(3) = (  0.000000  0.000000  0.033139 )  


     PseudoPot. # 1 for Pt read from file:
     /gpfs/pace1/project/chbe-medford/medford-share/data/pseudos/SSSP_eff_PBE/Pt.UPF
     MD5 check sum: f09d6de1a584b5a045c4fc126da2d0c4
     Pseudo is Ultrasoft + core correction, Zval = 16.0
     Generated by new atomic code, or converted to UPF format
     Using radial grid of  985 points,  6 beta functions with: 
                l(1) =   0
                l(2) =   0
                l(3) =   1
                l(4) =   1
                l(5) =   2
                l(6) =   2
     Q(r) pseudized with  8 coefficients,  rinner =    1.300   1.300   1.300
                                                       1.300   1.300

     PseudoPot. # 2 for O  read from file:
     /gpfs/pace1/project/chbe-medford/medford-share/data/pseudos/SSSP_eff_PBE/O.UPF
     MD5 check sum: 734c27235a0248c51dbae37a1fbe46ec
     Pseudo is Ultrasoft + core correction, Zval =  6.0
     Generated by new atomic code, or converted to UPF format
     Using radial grid of  737 points,  5 beta functions with: 
                l(1) =   0
                l(2) =   0
                l(3) =   1
                l(4) =   1
                l(5) =   2
     Q(r) pseudized with  8 coefficients,  rinner =    0.900   0.900   0.900
                                                       0.900   0.900

     PseudoPot. # 3 for C  read from file:
     /gpfs/pace1/project/chbe-medford/medford-share/data/pseudos/SSSP_eff_PBE/C.UPF
     MD5 check sum: d1aef80898a10debaa0f26306b886e00
     Pseudo is Ultrasoft + core correction, Zval =  4.0
     Generated by new atomic code, or converted to UPF format
     Using radial grid of  721 points,  4 beta functions with: 
                l(1) =   0
                l(2) =   0
                l(3) =   1
                l(4) =   1
     Q(r) pseudized with  8 coefficients,  rinner =    1.100   1.100   1.100


     PseudoPot. # 4 for  H read from file:
     /gpfs/pace1/project/chbe-medford/medford-share/data/pseudos/SSSP_eff_PBE/H.UPF
     MD5 check sum: 36633979392af7100e6f6632747262d3
     Pseudo is Ultrasoft, Zval =  1.0
     Generated using "atomic" code by A. Dal Corso  v.5.0.99 svn rev. 10869
     Using radial grid of  929 points,  2 beta functions with: 
                l(1) =   0
                l(2) =   0
     Q(r) pseudized with 0 coefficients 


     atomic species   valence    mass     pseudopotential
        Pt1           16.00   195.08000     Pt( 1.00)
        O1             6.00    15.99940     O ( 1.00)
        C1             4.00    12.01100     C ( 1.00)
        H1             1.00     1.00794      H( 1.00)

     No symmetry found



   Cartesian axes

     site n.     atom                  positions (alat units)
         1           Pt1 tau(   1) = (   0.0000000   0.0000000  10.0000000  )
         2           Pt1 tau(   2) = (   1.3976319   0.8069232  12.2823233  )
         3           Pt1 tau(   3) = (  -1.3976319   2.4207695  10.0000000  )
         4           Pt1 tau(   4) = (   0.0000000   3.2276926  12.2823233  )
         5           Pt1 tau(   5) = (  -2.7952638   4.8415390  10.0000000  )
         6           Pt1 tau(   6) = (  -1.3976319   5.6484621  12.2823233  )
         7           Pt1 tau(   7) = (  -4.1928957   7.2623084  10.0000000  )
         8           Pt1 tau(   8) = (  -2.7952638   8.0692316  12.2823233  )
         9           Pt1 tau(   9) = (   2.7952638   0.0000000  10.0000000  )
        10           Pt1 tau(  10) = (   4.1928957   0.8069232  12.2823233  )
        11           Pt1 tau(  11) = (   1.3976319   2.4207695  10.0000000  )
        12           Pt1 tau(  12) = (   2.7952638   3.2276926  12.2823233  )
        13           Pt1 tau(  13) = (   0.0000000   4.8415390  10.0000000  )
        14           Pt1 tau(  14) = (   1.3976319   5.6484621  12.2823233  )
        15           Pt1 tau(  15) = (  -1.3976319   7.2623084  10.0000000  )
        16           Pt1 tau(  16) = (   0.0000000   8.0692316  12.2823233  )
        17           Pt1 tau(  17) = (   5.5905276   0.0000000  10.0000000  )
        18           Pt1 tau(  18) = (   6.9881595   0.8069232  12.2823233  )
        19           Pt1 tau(  19) = (   4.1928957   2.4207695  10.0000000  )
        20           Pt1 tau(  20) = (   5.5905276   3.2276926  12.2823233  )
        21           Pt1 tau(  21) = (   2.7952638   4.8415390  10.0000000  )
        22           Pt1 tau(  22) = (   4.1928957   5.6484621  12.2823233  )
        23           Pt1 tau(  23) = (   1.3976319   7.2623084  10.0000000  )
        24           Pt1 tau(  24) = (   2.7952638   8.0692316  12.2823233  )
        25           Pt1 tau(  25) = (   8.3857915   0.0000000  10.0000000  )
        26           Pt1 tau(  26) = (   9.7834234   0.8069232  12.2823233  )
        27           Pt1 tau(  27) = (   6.9881595   2.4207695  10.0000000  )
        28           Pt1 tau(  28) = (   8.3857915   3.2276926  12.2823233  )
        29           Pt1 tau(  29) = (   5.5905276   4.8415390  10.0000000  )
        30           Pt1 tau(  30) = (   6.9881595   5.6484621  12.2823233  )
        31           Pt1 tau(  31) = (   4.1928957   7.2623084  10.0000000  )
        32           Pt1 tau(  32) = (   5.5905276   8.0692316  12.2823233  )
        33           O1  tau(  33) = (   0.9082000   4.6449000  19.5630233  )
        34           O1  tau(  34) = (   3.5989000   4.4888000  19.3705233  )
        35           O1  tau(  35) = (  -0.5726000   6.7609000  18.8447233  )
        36           O1  tau(  36) = (   4.1795000   7.2532000  18.9369233  )
        37           O1  tau(  37) = (   0.9549000   6.1357000  15.7713233  )
        38           O1  tau(  38) = (   5.0000000   5.0000000  16.2823233  )
        39           O1  tau(  39) = (  -0.6468000   4.9287000  16.8240233  )
        40           O1  tau(  40) = (   6.3017000   6.0043000  17.8518233  )
        41           C1  tau(  41) = (   1.5962000   5.7862000  19.0255233  )
        42           C1  tau(  42) = (   2.9046000   5.2752000  18.3918233  )
        43           C1  tau(  43) = (   0.6343000   6.5507000  18.1072233  )
        44           C1  tau(  44) = (   3.8877000   6.3426000  17.8889233  )
        45           C1  tau(  45) = (   0.2349000   5.7779000  16.8628233  )
        46           C1  tau(  46) = (   5.1982000   5.7776000  17.3763233  )
        47           H1  tau(  47) = (   1.8207000   6.4123000  19.8978233  )
        48           H1  tau(  48) = (   2.6689000   4.5759000  17.5818233  )
        49           H1  tau(  49) = (   1.0404000   7.5281000  17.8275233  )
        50           H1  tau(  50) = (   3.4314000   6.9220000  17.0785233  )
        51           H1  tau(  51) = (   1.5174000   4.1994000  20.1763233  )
        52           H1  tau(  52) = (   3.8363000   5.0788000  20.1065233  )
        53           H1  tau(  53) = (  -1.1353000   7.3547000  18.3184233  )
        54           H1  tau(  54) = (   4.6848000   7.9907000  18.5542233  )
        55           H1  tau(  55) = (   0.6850000   5.6330000  14.9733233  )
        56           H1  tau(  56) = (   5.8424000   4.6397000  15.9318233  )

     number of k points=    20  Fermi-Dirac smearing, width (Ry)=  0.0073
                       cart. coord. in units 2pi/alat
        k(    1) = (   0.0000000   0.0000000   0.0000000), wk =   0.0555556
        k(    2) = (   0.0000000   0.0172122   0.0000000), wk =   0.1111111
        k(    3) = (   0.0000000   0.0344243   0.0000000), wk =   0.1111111
        k(    4) = (   0.0000000  -0.0516365   0.0000000), wk =   0.0555556
        k(    5) = (   0.0149062   0.0258182   0.0000000), wk =   0.1111111
        k(    6) = (   0.0149062   0.0430304   0.0000000), wk =   0.1111111
        k(    7) = (   0.0298123   0.0516365   0.0000000), wk =   0.1111111
        k(    8) = (  -0.0149062   0.0086061   0.0000000), wk =   0.1111111
        k(    9) = (   0.0149062   0.0086061   0.0000000), wk =   0.1111111
        k(   10) = (  -0.0298123   0.0172122   0.0000000), wk =   0.1111111
        k(   11) = (   0.0298123   0.0172122   0.0000000), wk =   0.1111111
        k(   12) = (   0.0447185  -0.0258182   0.0000000), wk =   0.0555556
        k(   13) = (  -0.0447185  -0.0258182   0.0000000), wk =   0.0555556
        k(   14) = (  -0.0149062   0.0258182   0.0000000), wk =   0.1111111
        k(   15) = (   0.0298123   0.0000000   0.0000000), wk =   0.1111111
        k(   16) = (  -0.0149062   0.0430304   0.0000000), wk =   0.1111111
        k(   17) = (  -0.0298123   0.0344243   0.0000000), wk =   0.1111111
        k(   18) = (   0.0447185   0.0086061   0.0000000), wk =   0.1111111
        k(   19) = (  -0.0298123  -0.0344243   0.0000000), wk =   0.1111111
        k(   20) = (   0.0447185  -0.0086061   0.0000000), wk =   0.1111111

     Dense  grid:  2238991 G-vectors     FFT dimensions: ( 125, 125, 360)

     Smooth grid:   474815 G-vectors     FFT dimensions: (  75,  75, 200)

     Largest allocated arrays     est. size (Mb)     dimensions
        Kohn-Sham Wavefunctions       278.27 Mb     (   59403,  307)
        NL pseudopotentials           678.00 Mb     (   59403,  748)
        Each V/rho on FFT grid         85.83 Mb     ( 5625000)
        Each G-vector array            17.08 Mb     ( 2238991)
        G-vector shells                 0.61 Mb     (   80313)
     Largest temporary arrays     est. size (Mb)     dimensions
        Each subspace H/S matrix        1.44 Mb     (     307,  307)
        Each <psi_i|beta_j> matrix      3.50 Mb     (     748,  307)
        Arrays for rho mixing         686.65 Mb     ( 5625000,    8)

     Initial potential from superposition of free atoms
     Check: negative starting charge=   -5.883358

     starting charge  577.99929, renormalised to  594.00000

     negative rho (up, down):  6.046E+00 0.000E+00
     Starting wfc are  450 randomized atomic wfcs
  python dir          : /gpfs/pace1/project/chbe-medford/medford-share/gits/frozen/ben_espresso_8_24_2017/espresso
  espresso dir        : /nv/hp22/amedford6/medford-shared/builds/espresso/5.1.r11289-pybeef/intel-16.0+mvapich2-2.2+mkl-11.3/espresso-5.1.r11289-pybeef/bin
  pseudo dir          : /gpfs/pace1/project/chbe-medford/medford-share/data/pseudos/SSSP_eff_PBE
  ase-espresso py git : GITVERSION



     Program PWSCF v.5.1rc2 starts on  2Oct2018 at  5:28:15 

     This program is part of the open-source Quantum ESPRESSO suite
     for quantum simulation of materials; please cite
         "P. Giannozzi et al., J. Phys.:Condens. Matter 21 395502 (2009);
          URL http://www.quantum-espresso.org", 
     in publications or presentations arising from this work. More details at
     http://www.quantum-espresso.org/quote

     Parallel version (MPI), running on    14 processors
     R & G space division:  proc/nbgrp/npool/nimage =      14
     Reading input from pw.inp
     Message from routine read_cards :
     DEPRECATED: no units specified in CELL_PARAMETERS card

     Current dimensions of program PWSCF are:
     Max number of different atomic species (ntypx) = 10
     Max number of k-points (npk) =  40000
     Max angular momentum in pseudopotentials (lmaxx) =  3

     IMPORTANT: XC functional enforced from input :
     Exchange-correlation      = PBE ( 1  4  3  4 0)
     Any further DFT definition will be discarded
     Please, verify this is what you really want


     Subspace diagonalization in iterative solution of the eigenvalue problem:
     a serial algorithm will be used

 
     Parallelization info
     --------------------
     sticks:   dense  smooth     PW     G-vecs:    dense   smooth      PW
     Min         726     259     68               169244    35881    4980
     Max         727     260     69               169255    35934    4999
     Sum       10177    3631    955              2369497   502571   69821
 


     bravais-lattice index     =            0
     lattice parameter (alat)  =       1.8897  a.u.
     unit-cell volume          =   23330.3890 (a.u.)^3
     number of atoms/cell      =           47
     number of atomic types    =            4
     number of electrons       =       562.00
     number of Kohn-Sham states=          291
     kinetic-energy cutoff     =      29.3995  Ry
     charge density cutoff     =     330.7439  Ry
     convergence threshold     =      7.3E-08
     mixing beta               =       0.0500
     number of iterations used =            8  local-TF  mixing
     Exchange-correlation      = PBE ( 1  4  3  4 0)
     nstep                     =           50


     celldm(1)=   1.889726  celldm(2)=   0.000000  celldm(3)=   0.000000
     celldm(4)=   0.000000  celldm(5)=   0.000000  celldm(6)=   0.000000

     crystal axes: (cart. coord. in units of alat)
               a(1) = (  11.181055   0.000000   0.000000 )  
               a(2) = (  -5.590528   9.683078   0.000000 )  
               a(3) = (   0.000000   0.000000  31.932223 )  

     reciprocal axes: (cart. coord. in units 2 pi/alat)
               b(1) = (  0.089437  0.051636  0.000000 )  
               b(2) = (  0.000000  0.103273  0.000000 )  
               b(3) = (  0.000000  0.000000  0.031316 )  


     PseudoPot. # 1 for Pt read from file:
     /gpfs/pace1/project/chbe-medford/medford-share/data/pseudos/SSSP_eff_PBE/Pt.UPF
     MD5 check sum: f09d6de1a584b5a045c4fc126da2d0c4
     Pseudo is Ultrasoft + core correction, Zval = 16.0
     Generated by new atomic code, or converted to UPF format
     Using radial grid of  985 points,  6 beta functions with: 
                l(1) =   0
                l(2) =   0
                l(3) =   1
                l(4) =   1
                l(5) =   2
                l(6) =   2
     Q(r) pseudized with  8 coefficients,  rinner =    1.300   1.300   1.300
                                                       1.300   1.300

     PseudoPot. # 2 for O  read from file:
     /gpfs/pace1/project/chbe-medford/medford-share/data/pseudos/SSSP_eff_PBE/O.UPF
     MD5 check sum: 734c27235a0248c51dbae37a1fbe46ec
     Pseudo is Ultrasoft + core correction, Zval =  6.0
     Generated by new atomic code, or converted to UPF format
     Using radial grid of  737 points,  5 beta functions with: 
                l(1) =   0
                l(2) =   0
                l(3) =   1
                l(4) =   1
                l(5) =   2
     Q(r) pseudized with  8 coefficients,  rinner =    0.900   0.900   0.900
                                                       0.900   0.900

     PseudoPot. # 3 for C  read from file:
     /gpfs/pace1/project/chbe-medford/medford-share/data/pseudos/SSSP_eff_PBE/C.UPF
     MD5 check sum: d1aef80898a10debaa0f26306b886e00
     Pseudo is Ultrasoft + core correction, Zval =  4.0
     Generated by new atomic code, or converted to UPF format
     Using radial grid of  721 points,  4 beta functions with: 
                l(1) =   0
                l(2) =   0
                l(3) =   1
                l(4) =   1
     Q(r) pseudized with  8 coefficients,  rinner =    1.100   1.100   1.100


     PseudoPot. # 4 for  H read from file:
     /gpfs/pace1/project/chbe-medford/medford-share/data/pseudos/SSSP_eff_PBE/H.UPF
     MD5 check sum: 36633979392af7100e6f6632747262d3
     Pseudo is Ultrasoft, Zval =  1.0
     Generated using "atomic" code by A. Dal Corso  v.5.0.99 svn rev. 10869
     Using radial grid of  929 points,  2 beta functions with: 
                l(1) =   0
                l(2) =   0
     Q(r) pseudized with 0 coefficients 


     atomic species   valence    mass     pseudopotential
        Pt1           16.00   195.08000     Pt( 1.00)
        O1             6.00    15.99940     O ( 1.00)
        C1             4.00    12.01100     C ( 1.00)
        H1             1.00     1.00794      H( 1.00)

     No symmetry found



   Cartesian axes

     site n.     atom                  positions (alat units)
         1           Pt1 tau(   1) = (   0.0000000   0.0000000  10.0000000  )
         2           Pt1 tau(   2) = (   1.3976319   0.8069232  12.2823233  )
         3           Pt1 tau(   3) = (  -1.3976319   2.4207695  10.0000000  )
         4           Pt1 tau(   4) = (   0.0000000   3.2276926  12.2823233  )
         5           Pt1 tau(   5) = (  -2.7952638   4.8415390  10.0000000  )
         6           Pt1 tau(   6) = (  -1.3976319   5.6484621  12.2823233  )
         7           Pt1 tau(   7) = (  -4.1928957   7.2623084  10.0000000  )
         8           Pt1 tau(   8) = (  -2.7952638   8.0692316  12.2823233  )
         9           Pt1 tau(   9) = (   2.7952638   0.0000000  10.0000000  )
        10           Pt1 tau(  10) = (   4.1928957   0.8069232  12.2823233  )
        11           Pt1 tau(  11) = (   1.3976319   2.4207695  10.0000000  )
        12           Pt1 tau(  12) = (   2.7952638   3.2276926  12.2823233  )
        13           Pt1 tau(  13) = (   0.0000000   4.8415390  10.0000000  )
        14           Pt1 tau(  14) = (   1.3976319   5.6484621  12.2823233  )
        15           Pt1 tau(  15) = (  -1.3976319   7.2623084  10.0000000  )
        16           Pt1 tau(  16) = (   0.0000000   8.0692316  12.2823233  )
        17           Pt1 tau(  17) = (   5.5905276   0.0000000  10.0000000  )
        18           Pt1 tau(  18) = (   6.9881595   0.8069232  12.2823233  )
        19           Pt1 tau(  19) = (   4.1928957   2.4207695  10.0000000  )
        20           Pt1 tau(  20) = (   5.5905276   3.2276926  12.2823233  )
        21           Pt1 tau(  21) = (   2.7952638   4.8415390  10.0000000  )
        22           Pt1 tau(  22) = (   4.1928957   5.6484621  12.2823233  )
        23           Pt1 tau(  23) = (   1.3976319   7.2623084  10.0000000  )
        24           Pt1 tau(  24) = (   2.7952638   8.0692316  12.2823233  )
        25           Pt1 tau(  25) = (   8.3857915   0.0000000  10.0000000  )
        26           Pt1 tau(  26) = (   9.7834234   0.8069232  12.2823233  )
        27           Pt1 tau(  27) = (   6.9881595   2.4207695  10.0000000  )
        28           Pt1 tau(  28) = (   8.3857915   3.2276926  12.2823233  )
        29           Pt1 tau(  29) = (   5.5905276   4.8415390  10.0000000  )
        30           Pt1 tau(  30) = (   6.9881595   5.6484621  12.2823233  )
        31           Pt1 tau(  31) = (   4.1928957   7.2623084  10.0000000  )
        32           Pt1 tau(  32) = (   5.5905276   8.0692316  12.2823233  )
        33           O1  tau(  33) = (   5.0000000   5.0000000  16.2823233  )
        34           O1  tau(  34) = (   6.2795000   5.0443000  20.3851233  )
        35           O1  tau(  35) = (   4.6471000   6.7569000  17.6838233  )
        36           O1  tau(  36) = (   4.8329000   5.8611000  21.9322233  )
        37           C1  tau(  37) = (   4.3831000   4.4609000  18.4859233  )
        38           C1  tau(  38) = (   4.0076000   5.0387000  19.8218233  )
        39           C1  tau(  39) = (   4.6737000   5.5524000  17.4800233  )
        40           C1  tau(  40) = (   5.0446000   5.3675000  20.8350233  )
        41           C1  tau(  41) = (   2.7348000   5.3105000  20.1484233  )
        42           H1  tau(  42) = (   5.2513000   3.7990000  18.5666233  )
        43           H1  tau(  43) = (   3.5520000   3.8607000  18.0945233  )
        44           H1  tau(  44) = (   1.9282000   5.1085000  19.4504233  )
        45           H1  tau(  45) = (   2.4526000   5.7376000  21.1049233  )
        46           H1  tau(  46) = (   5.2037000   5.6830000  15.6084233  )
        47           H1  tau(  47) = (   6.9767000   5.2542000  21.0425233  )

     number of k points=    20  Fermi-Dirac smearing, width (Ry)=  0.0073
                       cart. coord. in units 2pi/alat
        k(    1) = (   0.0000000   0.0000000   0.0000000), wk =   0.0555556
        k(    2) = (   0.0000000   0.0172122   0.0000000), wk =   0.1111111
        k(    3) = (   0.0000000   0.0344243   0.0000000), wk =   0.1111111
        k(    4) = (   0.0000000  -0.0516365   0.0000000), wk =   0.0555556
        k(    5) = (   0.0149062   0.0258182   0.0000000), wk =   0.1111111
        k(    6) = (   0.0149062   0.0430304   0.0000000), wk =   0.1111111
        k(    7) = (   0.0298123   0.0516365   0.0000000), wk =   0.1111111
        k(    8) = (  -0.0149062   0.0086061   0.0000000), wk =   0.1111111
        k(    9) = (   0.0149062   0.0086061   0.0000000), wk =   0.1111111
        k(   10) = (  -0.0298123   0.0172122   0.0000000), wk =   0.1111111
        k(   11) = (   0.0298123   0.0172122   0.0000000), wk =   0.1111111
        k(   12) = (   0.0447185  -0.0258182   0.0000000), wk =   0.0555556
        k(   13) = (  -0.0447185  -0.0258182   0.0000000), wk =   0.0555556
        k(   14) = (  -0.0149062   0.0258182   0.0000000), wk =   0.1111111
        k(   15) = (   0.0298123   0.0000000   0.0000000), wk =   0.1111111
        k(   16) = (  -0.0149062   0.0430304   0.0000000), wk =   0.1111111
        k(   17) = (  -0.0298123   0.0344243   0.0000000), wk =   0.1111111
        k(   18) = (   0.0447185   0.0086061   0.0000000), wk =   0.1111111
        k(   19) = (  -0.0298123  -0.0344243   0.0000000), wk =   0.1111111
        k(   20) = (   0.0447185  -0.0086061   0.0000000), wk =   0.1111111

     Dense  grid:  2369497 G-vectors     FFT dimensions: ( 125, 125, 360)

     Smooth grid:   502571 G-vectors     FFT dimensions: (  75,  75, 216)

     Largest allocated arrays     est. size (Mb)     dimensions
        Kohn-Sham Wavefunctions        20.05 Mb     (    4516,  291)
        NL pseudopotentials            46.86 Mb     (    4516,  680)
        Each V/rho on FFT grid          6.20 Mb     (  406250)
        Each G-vector array             1.29 Mb     (  169251)
        G-vector shells                 0.44 Mb     (   57932)
     Largest temporary arrays     est. size (Mb)     dimensions
        Each subspace H/S matrix        1.29 Mb     (     291,  291)
        Each <psi_i|beta_j> matrix      3.02 Mb     (     680,  291)
        Arrays for rho mixing          49.59 Mb     (  406250,    8)

     Initial potential from superposition of free atoms
     Check: negative starting charge=   -5.896962

     starting charge  545.99937, renormalised to  562.00000

     negative rho (up, down):  6.070E+00 0.000E+00
     Starting wfc are  426 randomized atomic wfcs

     total cpu time spent up to now is      126.8 secs

     per-process dynamical memory:   605.4 Mb

     Self-consistent Calculation

     iteration #  1     ecut=    29.40 Ry     beta=0.05
     CG style diagonalization
     ethr =  1.00E-02,  avg # of iterations =  2.4

     negative rho (up, down):  6.042E+00 0.000E+00

     total cpu time spent up to now is      952.4 secs

     total energy              =   -6945.25065113 Ry
     Harris-Foulkes estimate   =   -6946.66014390 Ry
     estimated scf accuracy    <     144.89560863 Ry

     iteration #  2     ecut=    29.40 Ry     beta=0.05
     CG style diagonalization
     ethr =  1.00E-02,  avg # of iterations =  3.0

     negative rho (up, down):  5.872E+00 0.000E+00

     total cpu time spent up to now is     1692.4 secs

     total energy              =   -6920.42835142 Ry
     Harris-Foulkes estimate   =   -6945.50516759 Ry
     estimated scf accuracy    <     134.63259149 Ry

     iteration #  3     ecut=    29.40 Ry     beta=0.05
     CG style diagonalization
     c_bands:  1 eigenvalues not converged
     ethr =  1.00E-02,  avg # of iterations =  3.8

     negative rho (up, down):  5.872E+00 0.000E+00

     total cpu time spent up to now is     2727.2 secs

     total energy              =   -6935.61725137 Ry
     Harris-Foulkes estimate   =   -6935.29775135 Ry
     estimated scf accuracy    <      47.73015326 Ry

     iteration #  4     ecut=    29.40 Ry     beta=0.05
     CG style diagonalization
     ethr =  8.49E-03,  avg # of iterations =  3.0

     negative rho (up, down):  5.877E+00 0.000E+00

     total cpu time spent up to now is     3516.3 secs

     total energy              =   -6936.56153024 Ry
     Harris-Foulkes estimate   =   -6936.16265832 Ry
     estimated scf accuracy    <      49.32760230 Ry

     iteration #  5     ecut=    29.40 Ry     beta=0.05
     CG style diagonalization
     ethr =  8.49E-03,  avg # of iterations =  3.0

     negative rho (up, down):  6.023E+00 0.000E+00

     total cpu time spent up to now is     4281.6 secs

     total energy              =   -6935.06504150 Ry
     Harris-Foulkes estimate   =   -6936.93030378 Ry
     estimated scf accuracy    <      51.51236443 Ry

     iteration #  6     ecut=    29.40 Ry     beta=0.05
     CG style diagonalization
     ethr =  8.49E-03,  avg # of iterations =  3.0

     negative rho (up, down):  6.810E+00 0.000E+00

     total cpu time spent up to now is     5056.2 secs

     total energy              =   -6927.84326826 Ry
     Harris-Foulkes estimate   =   -6935.63600419 Ry
     estimated scf accuracy    <      46.09120559 Ry

     iteration #  7     ecut=    29.40 Ry     beta=0.05
     CG style diagonalization
     ethr =  8.20E-03,  avg # of iterations =  3.2

     negative rho (up, down):  6.909E+00 0.000E+00

     total cpu time spent up to now is     5910.7 secs

     total energy              =   -6932.20043472 Ry
     Harris-Foulkes estimate   =   -6931.61921132 Ry
     estimated scf accuracy    <      23.00580193 Ry

     iteration #  8     ecut=    29.40 Ry     beta=0.05
     CG style diagonalization
     ethr =  4.09E-03,  avg # of iterations =  3.1

     negative rho (up, down):  6.578E+00 0.000E+00

     total cpu time spent up to now is     6693.4 secs

     total energy              =   -6932.44953777 Ry
     Harris-Foulkes estimate   =   -6934.33254501 Ry
     estimated scf accuracy    <      17.09140794 Ry

     iteration #  9     ecut=    29.40 Ry     beta=0.05
     CG style diagonalization
     ethr =  3.04E-03,  avg # of iterations =  3.0

     negative rho (up, down):  6.327E+00 0.000E+00

     total cpu time spent up to now is     7471.1 secs

     total energy              =   -6932.19117178 Ry
     Harris-Foulkes estimate   =   -6933.00686880 Ry
     estimated scf accuracy    <      10.69890018 Ry

     iteration # 10     ecut=    29.40 Ry     beta=0.05
     CG style diagonalization
     c_bands:  1 eigenvalues not converged
     c_bands:  1 eigenvalues not converged
     c_bands:  1 eigenvalues not converged
     ethr =  1.90E-03,  avg # of iterations =  3.5

     negative rho (up, down):  6.362E+00 0.000E+00

     total cpu time spent up to now is     8425.3 secs

     total energy              =   -6933.73764327 Ry
     Harris-Foulkes estimate   =   -6933.97273537 Ry
     estimated scf accuracy    <       7.58590644 Ry

     iteration # 11     ecut=    29.40 Ry     beta=0.05
     CG style diagonalization
     ethr =  1.35E-03,  avg # of iterations =  3.0

     negative rho (up, down):  6.399E+00 0.000E+00

     total cpu time spent up to now is     9187.2 secs

     total energy              =   -6933.80089957 Ry
     Harris-Foulkes estimate   =   -6933.91900738 Ry
     estimated scf accuracy    <       6.97985691 Ry

     iteration # 12     ecut=    29.40 Ry     beta=0.05
     CG style diagonalization
     c_bands:  1 eigenvalues not converged
     ethr =  1.24E-03,  avg # of iterations =  3.0

     negative rho (up, down):  6.354E+00 0.000E+00

     total cpu time spent up to now is     9965.9 secs

     total energy              =   -6934.16035509 Ry
     Harris-Foulkes estimate   =   -6933.97770769 Ry
     estimated scf accuracy    <       6.24100342 Ry

     iteration # 13     ecut=    29.40 Ry     beta=0.05
     CG style diagonalization
     ethr =  1.11E-03,  avg # of iterations =  3.0

     negative rho (up, down):  6.286E+00 0.000E+00

     total cpu time spent up to now is    10747.3 secs

     total energy              =   -6934.71233607 Ry
     Harris-Foulkes estimate   =   -6934.18213741 Ry
     estimated scf accuracy    <       6.46996181 Ry

     iteration # 14     ecut=    29.40 Ry     beta=0.05
     CG style diagonalization
     ethr =  1.11E-03,  avg # of iterations =  3.0

     negative rho (up, down):  6.236E+00 0.000E+00

     total cpu time spent up to now is    11521.7 secs

     total energy              =   -6935.65243910 Ry
     Harris-Foulkes estimate   =   -6934.86593143 Ry
     estimated scf accuracy    <      14.36637593 Ry

     iteration # 15     ecut=    29.40 Ry     beta=0.05
     CG style diagonalization
     c_bands:  1 eigenvalues not converged
     c_bands:  1 eigenvalues not converged
     c_bands:  1 eigenvalues not converged
     ethr =  1.11E-03,  avg # of iterations =  3.0

     negative rho (up, down):  6.164E+00 0.000E+00

     total cpu time spent up to now is    12302.6 secs

     total energy              =   -6937.05923865 Ry
     Harris-Foulkes estimate   =   -6936.22637649 Ry
     estimated scf accuracy    <      49.55925313 Ry

     iteration # 16     ecut=    29.40 Ry     beta=0.05
     CG style diagonalization
     c_bands:  1 eigenvalues not converged
     ethr =  1.11E-03,  avg # of iterations =  3.0

     negative rho (up, down):  6.196E+00 0.000E+00

     total cpu time spent up to now is    13075.5 secs

     total energy              =   -6937.79698721 Ry
     Harris-Foulkes estimate   =   -6937.50659394 Ry
     estimated scf accuracy    <     104.52718729 Ry

     iteration # 17     ecut=    29.40 Ry     beta=0.05
     CG style diagonalization
     c_bands:  1 eigenvalues not converged
     ethr =  1.11E-03,  avg # of iterations =  3.0

     negative rho (up, down):  6.159E+00 0.000E+00

     total cpu time spent up to now is    13818.3 secs

     total energy              =   -6937.65184536 Ry
     Harris-Foulkes estimate   =   -6937.85417726 Ry
     estimated scf accuracy    <     108.41020290 Ry

     iteration # 18     ecut=    29.40 Ry     beta=0.05
     CG style diagonalization
     ethr =  1.11E-03,  avg # of iterations =  3.0

     negative rho (up, down):  6.129E+00 0.000E+00

     total cpu time spent up to now is    14575.3 secs

     total energy              =   -6931.39842906 Ry
     Harris-Foulkes estimate   =   -6937.69411320 Ry
     estimated scf accuracy    <     107.33075890 Ry

     iteration # 19     ecut=    29.40 Ry     beta=0.05
     CG style diagonalization
     c_bands:  1 eigenvalues not converged
     ethr =  1.11E-03,  avg # of iterations =  3.1

     negative rho (up, down):  6.005E+00 0.000E+00

     total cpu time spent up to now is    15358.8 secs

     total energy              =   -6934.87991748 Ry
     Harris-Foulkes estimate   =   -6934.46095630 Ry
     estimated scf accuracy    <       8.31980483 Ry

     iteration # 20     ecut=    29.40 Ry     beta=0.05
     CG style diagonalization
     ethr =  1.11E-03,  avg # of iterations =  3.0

     negative rho (up, down):  5.922E+00 0.000E+00

     total cpu time spent up to now is    16104.5 secs

     total energy              =   -6934.60067826 Ry
     Harris-Foulkes estimate   =   -6934.95366268 Ry
     estimated scf accuracy    <      10.73136186 Ry

     iteration # 21     ecut=    29.40 Ry     beta=0.05
     CG style diagonalization
     ethr =  1.11E-03,  avg # of iterations =  3.0

     negative rho (up, down):  5.928E+00 0.000E+00

     total cpu time spent up to now is    16823.0 secs

     total energy              =   -6934.68812287 Ry
     Harris-Foulkes estimate   =   -6934.81795771 Ry
     estimated scf accuracy    <      13.97818487 Ry

     iteration # 22     ecut=    29.40 Ry     beta=0.05
     CG style diagonalization
     ethr =  1.11E-03,  avg # of iterations =  3.0

     negative rho (up, down):  6.060E+00 0.000E+00

     total cpu time spent up to now is    17578.3 secs

     total energy              =   -6933.52648361 Ry
     Harris-Foulkes estimate   =   -6934.72062737 Ry
     estimated scf accuracy    <      11.39512179 Ry

     iteration # 23     ecut=    29.40 Ry     beta=0.05
     CG style diagonalization
     ethr =  1.11E-03,  avg # of iterations =  3.0

     negative rho (up, down):  6.169E+00 0.000E+00

     total cpu time spent up to now is    18364.4 secs

     total energy              =   -6933.44849697 Ry
     Harris-Foulkes estimate   =   -6933.91916535 Ry
     estimated scf accuracy    <       3.92181475 Ry

     iteration # 24     ecut=    29.40 Ry     beta=0.05
     CG style diagonalization
  python dir          : /gpfs/pace1/project/chbe-medford/medford-share/gits/frozen/ben_espresso_8_24_2017/espresso
  espresso dir        : /nv/hp22/amedford6/medford-shared/builds/espresso/5.1.r11289-pybeef/intel-16.0+mvapich2-2.2+mkl-11.3/espresso-5.1.r11289-pybeef/bin
  pseudo dir          : /gpfs/pace1/project/chbe-medford/medford-share/data/pseudos/SSSP_eff_PBE
  ase-espresso py git : GITVERSION



     Program PWSCF v.5.1rc2 starts on  2Oct2018 at 10:40:28 

     This program is part of the open-source Quantum ESPRESSO suite
     for quantum simulation of materials; please cite
         "P. Giannozzi et al., J. Phys.:Condens. Matter 21 395502 (2009);
          URL http://www.quantum-espresso.org", 
     in publications or presentations arising from this work. More details at
     http://www.quantum-espresso.org/quote

     Parallel version (MPI), running on    14 processors
     R & G space division:  proc/nbgrp/npool/nimage =      14
     Reading input from pw.inp
     Message from routine read_cards :
     DEPRECATED: no units specified in CELL_PARAMETERS card

     Current dimensions of program PWSCF are:
     Max number of different atomic species (ntypx) = 10
     Max number of k-points (npk) =  40000
     Max angular momentum in pseudopotentials (lmaxx) =  3

     IMPORTANT: XC functional enforced from input :
     Exchange-correlation      = PBE ( 1  4  3  4 0)
     Any further DFT definition will be discarded
     Please, verify this is what you really want


     Subspace diagonalization in iterative solution of the eigenvalue problem:
     a serial algorithm will be used

 
     Parallelization info
     --------------------
     sticks:   dense  smooth     PW     G-vecs:    dense   smooth      PW
     Min         726     259     68               169244    35881    4980
     Max         727     260     69               169255    35934    4999
     Sum       10177    3631    955              2369497   502571   69821
 


     bravais-lattice index     =            0
     lattice parameter (alat)  =       1.8897  a.u.
     unit-cell volume          =   23330.3890 (a.u.)^3
     number of atoms/cell      =           47
     number of atomic types    =            4
     number of electrons       =       562.00
     number of Kohn-Sham states=          291
     kinetic-energy cutoff     =      29.3995  Ry
     charge density cutoff     =     330.7439  Ry
     convergence threshold     =      7.3E-08
     mixing beta               =       0.0500
     number of iterations used =            8  local-TF  mixing
     Exchange-correlation      = PBE ( 1  4  3  4 0)
     nstep                     =           50


     celldm(1)=   1.889726  celldm(2)=   0.000000  celldm(3)=   0.000000
     celldm(4)=   0.000000  celldm(5)=   0.000000  celldm(6)=   0.000000

     crystal axes: (cart. coord. in units of alat)
               a(1) = (  11.181055   0.000000   0.000000 )  
               a(2) = (  -5.590528   9.683078   0.000000 )  
               a(3) = (   0.000000   0.000000  31.932223 )  

     reciprocal axes: (cart. coord. in units 2 pi/alat)
               b(1) = (  0.089437  0.051636  0.000000 )  
               b(2) = (  0.000000  0.103273  0.000000 )  
               b(3) = (  0.000000  0.000000  0.031316 )  


     PseudoPot. # 1 for Pt read from file:
     /gpfs/pace1/project/chbe-medford/medford-share/data/pseudos/SSSP_eff_PBE/Pt.UPF
     MD5 check sum: f09d6de1a584b5a045c4fc126da2d0c4
     Pseudo is Ultrasoft + core correction, Zval = 16.0
     Generated by new atomic code, or converted to UPF format
     Using radial grid of  985 points,  6 beta functions with: 
                l(1) =   0
                l(2) =   0
                l(3) =   1
                l(4) =   1
                l(5) =   2
                l(6) =   2
     Q(r) pseudized with  8 coefficients,  rinner =    1.300   1.300   1.300
                                                       1.300   1.300

     PseudoPot. # 2 for O  read from file:
     /gpfs/pace1/project/chbe-medford/medford-share/data/pseudos/SSSP_eff_PBE/O.UPF
     MD5 check sum: 734c27235a0248c51dbae37a1fbe46ec
     Pseudo is Ultrasoft + core correction, Zval =  6.0
     Generated by new atomic code, or converted to UPF format
     Using radial grid of  737 points,  5 beta functions with: 
                l(1) =   0
                l(2) =   0
                l(3) =   1
                l(4) =   1
                l(5) =   2
     Q(r) pseudized with  8 coefficients,  rinner =    0.900   0.900   0.900
                                                       0.900   0.900

     PseudoPot. # 3 for C  read from file:
     /gpfs/pace1/project/chbe-medford/medford-share/data/pseudos/SSSP_eff_PBE/C.UPF
     MD5 check sum: d1aef80898a10debaa0f26306b886e00
     Pseudo is Ultrasoft + core correction, Zval =  4.0
     Generated by new atomic code, or converted to UPF format
     Using radial grid of  721 points,  4 beta functions with: 
                l(1) =   0
                l(2) =   0
                l(3) =   1
                l(4) =   1
     Q(r) pseudized with  8 coefficients,  rinner =    1.100   1.100   1.100


     PseudoPot. # 4 for  H read from file:
     /gpfs/pace1/project/chbe-medford/medford-share/data/pseudos/SSSP_eff_PBE/H.UPF
     MD5 check sum: 36633979392af7100e6f6632747262d3
     Pseudo is Ultrasoft, Zval =  1.0
     Generated using "atomic" code by A. Dal Corso  v.5.0.99 svn rev. 10869
     Using radial grid of  929 points,  2 beta functions with: 
                l(1) =   0
                l(2) =   0
     Q(r) pseudized with 0 coefficients 


     atomic species   valence    mass     pseudopotential
        Pt1           16.00   195.08000     Pt( 1.00)
        O1             6.00    15.99940     O ( 1.00)
        C1             4.00    12.01100     C ( 1.00)
        H1             1.00     1.00794      H( 1.00)

     No symmetry found



   Cartesian axes

     site n.     atom                  positions (alat units)
         1           Pt1 tau(   1) = (   0.0000000   0.0000000  10.0000000  )
         2           Pt1 tau(   2) = (   1.3976319   0.8069232  12.2823233  )
         3           Pt1 tau(   3) = (  -1.3976319   2.4207695  10.0000000  )
         4           Pt1 tau(   4) = (   0.0000000   3.2276926  12.2823233  )
         5           Pt1 tau(   5) = (  -2.7952638   4.8415390  10.0000000  )
         6           Pt1 tau(   6) = (  -1.3976319   5.6484621  12.2823233  )
         7           Pt1 tau(   7) = (  -4.1928957   7.2623084  10.0000000  )
         8           Pt1 tau(   8) = (  -2.7952638   8.0692316  12.2823233  )
         9           Pt1 tau(   9) = (   2.7952638   0.0000000  10.0000000  )
        10           Pt1 tau(  10) = (   4.1928957   0.8069232  12.2823233  )
        11           Pt1 tau(  11) = (   1.3976319   2.4207695  10.0000000  )
        12           Pt1 tau(  12) = (   2.7952638   3.2276926  12.2823233  )
        13           Pt1 tau(  13) = (   0.0000000   4.8415390  10.0000000  )
        14           Pt1 tau(  14) = (   1.3976319   5.6484621  12.2823233  )
        15           Pt1 tau(  15) = (  -1.3976319   7.2623084  10.0000000  )
        16           Pt1 tau(  16) = (   0.0000000   8.0692316  12.2823233  )
        17           Pt1 tau(  17) = (   5.5905276   0.0000000  10.0000000  )
        18           Pt1 tau(  18) = (   6.9881595   0.8069232  12.2823233  )
        19           Pt1 tau(  19) = (   4.1928957   2.4207695  10.0000000  )
        20           Pt1 tau(  20) = (   5.5905276   3.2276926  12.2823233  )
        21           Pt1 tau(  21) = (   2.7952638   4.8415390  10.0000000  )
        22           Pt1 tau(  22) = (   4.1928957   5.6484621  12.2823233  )
        23           Pt1 tau(  23) = (   1.3976319   7.2623084  10.0000000  )
        24           Pt1 tau(  24) = (   2.7952638   8.0692316  12.2823233  )
        25           Pt1 tau(  25) = (   8.3857915   0.0000000  10.0000000  )
        26           Pt1 tau(  26) = (   9.7834234   0.8069232  12.2823233  )
        27           Pt1 tau(  27) = (   6.9881595   2.4207695  10.0000000  )
        28           Pt1 tau(  28) = (   8.3857915   3.2276926  12.2823233  )
        29           Pt1 tau(  29) = (   5.5905276   4.8415390  10.0000000  )
        30           Pt1 tau(  30) = (   6.9881595   5.6484621  12.2823233  )
        31           Pt1 tau(  31) = (   4.1928957   7.2623084  10.0000000  )
        32           Pt1 tau(  32) = (   5.5905276   8.0692316  12.2823233  )
        33           O1  tau(  33) = (   5.0000000   5.0000000  16.2823233  )
        34           O1  tau(  34) = (   6.2795000   5.0443000  20.3851233  )
        35           O1  tau(  35) = (   4.6471000   6.7569000  17.6838233  )
        36           O1  tau(  36) = (   4.8329000   5.8611000  21.9322233  )
        37           C1  tau(  37) = (   4.3831000   4.4609000  18.4859233  )
        38           C1  tau(  38) = (   4.0076000   5.0387000  19.8218233  )
        39           C1  tau(  39) = (   4.6737000   5.5524000  17.4800233  )
        40           C1  tau(  40) = (   5.0446000   5.3675000  20.8350233  )
        41           C1  tau(  41) = (   2.7348000   5.3105000  20.1484233  )
        42           H1  tau(  42) = (   5.2513000   3.7990000  18.5666233  )
        43           H1  tau(  43) = (   3.5520000   3.8607000  18.0945233  )
        44           H1  tau(  44) = (   1.9282000   5.1085000  19.4504233  )
        45           H1  tau(  45) = (   2.4526000   5.7376000  21.1049233  )
        46           H1  tau(  46) = (   5.2037000   5.6830000  15.6084233  )
        47           H1  tau(  47) = (   6.9767000   5.2542000  21.0425233  )

     number of k points=    20  Fermi-Dirac smearing, width (Ry)=  0.0073
                       cart. coord. in units 2pi/alat
        k(    1) = (   0.0000000   0.0000000   0.0000000), wk =   0.0555556
        k(    2) = (   0.0000000   0.0172122   0.0000000), wk =   0.1111111
        k(    3) = (   0.0000000   0.0344243   0.0000000), wk =   0.1111111
        k(    4) = (   0.0000000  -0.0516365   0.0000000), wk =   0.0555556
        k(    5) = (   0.0149062   0.0258182   0.0000000), wk =   0.1111111
        k(    6) = (   0.0149062   0.0430304   0.0000000), wk =   0.1111111
        k(    7) = (   0.0298123   0.0516365   0.0000000), wk =   0.1111111
        k(    8) = (  -0.0149062   0.0086061   0.0000000), wk =   0.1111111
        k(    9) = (   0.0149062   0.0086061   0.0000000), wk =   0.1111111
        k(   10) = (  -0.0298123   0.0172122   0.0000000), wk =   0.1111111
        k(   11) = (   0.0298123   0.0172122   0.0000000), wk =   0.1111111
        k(   12) = (   0.0447185  -0.0258182   0.0000000), wk =   0.0555556
        k(   13) = (  -0.0447185  -0.0258182   0.0000000), wk =   0.0555556
        k(   14) = (  -0.0149062   0.0258182   0.0000000), wk =   0.1111111
        k(   15) = (   0.0298123   0.0000000   0.0000000), wk =   0.1111111
        k(   16) = (  -0.0149062   0.0430304   0.0000000), wk =   0.1111111
        k(   17) = (  -0.0298123   0.0344243   0.0000000), wk =   0.1111111
        k(   18) = (   0.0447185   0.0086061   0.0000000), wk =   0.1111111
        k(   19) = (  -0.0298123  -0.0344243   0.0000000), wk =   0.1111111
        k(   20) = (   0.0447185  -0.0086061   0.0000000), wk =   0.1111111

     Dense  grid:  2369497 G-vectors     FFT dimensions: ( 125, 125, 360)

     Smooth grid:   502571 G-vectors     FFT dimensions: (  75,  75, 216)

     Largest allocated arrays     est. size (Mb)     dimensions
        Kohn-Sham Wavefunctions        20.05 Mb     (    4516,  291)
[...]

     stopping ...

 %%%%%%%%%%%%%%%%%%%%%%%%%%%%%%%%%%%%%%%%%%%%%%%%%%%%%%%%%%%%%%%%%%%%%%%%%%%%%%
     Error in routine read_input (2):
     opening input file
 %%%%%%%%%%%%%%%%%%%%%%%%%%%%%%%%%%%%%%%%%%%%%%%%%%%%%%%%%%%%%%%%%%%%%%%%%%%%%%

     stopping ...

 %%%%%%%%%%%%%%%%%%%%%%%%%%%%%%%%%%%%%%%%%%%%%%%%%%%%%%%%%%%%%%%%%%%%%%%%%%%%%%
     Error in routine read_input (2):
     opening input file
 %%%%%%%%%%%%%%%%%%%%%%%%%%%%%%%%%%%%%%%%%%%%%%%%%%%%%%%%%%%%%%%%%%%%%%%%%%%%%%

     stopping ...

 %%%%%%%%%%%%%%%%%%%%%%%%%%%%%%%%%%%%%%%%%%%%%%%%%%%%%%%%%%%%%%%%%%%%%%%%%%%%%%
     Error in routine read_input (2):
     opening input file
 %%%%%%%%%%%%%%%%%%%%%%%%%%%%%%%%%%%%%%%%%%%%%%%%%%%%%%%%%%%%%%%%%%%%%%%%%%%%%%

     stopping ...

 %%%%%%%%%%%%%%%%%%%%%%%%%%%%%%%%%%%%%%%%%%%%%%%%%%%%%%%%%%%%%%%%%%%%%%%%%%%%%%
     Error in routine read_input (2):
     opening input file
 %%%%%%%%%%%%%%%%%%%%%%%%%%%%%%%%%%%%%%%%%%%%%%%%%%%%%%%%%%%%%%%%%%%%%%%%%%%%%%

     stopping ...

 %%%%%%%%%%%%%%%%%%%%%%%%%%%%%%%%%%%%%%%%%%%%%%%%%%%%%%%%%%%%%%%%%%%%%%%%%%%%%%
     Error in routine read_input (2):
     opening input file
 %%%%%%%%%%%%%%%%%%%%%%%%%%%%%%%%%%%%%%%%%%%%%%%%%%%%%%%%%%%%%%%%%%%%%%%%%%%%%%

     stopping ...

===================================================================================
=   BAD TERMINATION OF ONE OF YOUR APPLICATION PROCESSES
=   PID 22317 RUNNING AT rich133-c32-28-l.pace.gatech.edu
=   EXIT CODE: 1
=   CLEANING UP REMAINING PROCESSES
=   YOU CAN IGNORE THE BELOW CLEANUP MESSAGES
===================================================================================
  python dir          : /gpfs/pace1/project/chbe-medford/medford-share/gits/frozen/ben_espresso_8_24_2017/espresso
  espresso dir        : /nv/hp22/amedford6/medford-shared/builds/espresso/5.1.r11289-pybeef/intel-16.0+mvapich2-2.2+mkl-11.3/espresso-5.1.r11289-pybeef/bin
  pseudo dir          : /gpfs/pace1/project/chbe-medford/medford-share/data/pseudos/SSSP_eff_PBE
  ase-espresso py git : GITVERSION



     Program PWSCF v.5.1rc2 starts on  4Oct2018 at 13:37:14 

     This program is part of the open-source Quantum ESPRESSO suite
     for quantum simulation of materials; please cite
         "P. Giannozzi et al., J. Phys.:Condens. Matter 21 395502 (2009);
          URL http://www.quantum-espresso.org", 
     in publications or presentations arising from this work. More details at
     http://www.quantum-espresso.org/quote

     Parallel version (MPI), running on    14 processors
     R & G space division:  proc/nbgrp/npool/nimage =      14
Open_input_file: error opening pw.inp

 %%%%%%%%%%%%%%%%%%%%%%%%%%%%%%%%%%%%%%%%%%%%%%%%%%%%%%%%%%%%%%%%%%%%%%%%%%%%%%
     Error in routine read_input (2):
     opening input file
 %%%%%%%%%%%%%%%%%%%%%%%%%%%%%%%%%%%%%%%%%%%%%%%%%%%%%%%%%%%%%%%%%%%%%%%%%%%%%%

     stopping ...

 %%%%%%%%%%%%%%%%%%%%%%%%%%%%%%%%%%%%%%%%%%%%%%%%%%%%%%%%%%%%%%%%%%%%%%%%%%%%%%
     Error in routine read_input (2):
     opening input file
 %%%%%%%%%%%%%%%%%%%%%%%%%%%%%%%%%%%%%%%%%%%%%%%%%%%%%%%%%%%%%%%%%%%%%%%%%%%%%%

     stopping ...

 %%%%%%%%%%%%%%%%%%%%%%%%%%%%%%%%%%%%%%%%%%%%%%%%%%%%%%%%%%%%%%%%%%%%%%%%%%%%%%
     Error in routine read_input (2):
     opening input file
 %%%%%%%%%%%%%%%%%%%%%%%%%%%%%%%%%%%%%%%%%%%%%%%%%%%%%%%%%%%%%%%%%%%%%%%%%%%%%%

     stopping ...

 %%%%%%%%%%%%%%%%%%%%%%%%%%%%%%%%%%%%%%%%%%%%%%%%%%%%%%%%%%%%%%%%%%%%%%%%%%%%%%
     Error in routine read_input (2):
     opening input file
 %%%%%%%%%%%%%%%%%%%%%%%%%%%%%%%%%%%%%%%%%%%%%%%%%%%%%%%%%%%%%%%%%%%%%%%%%%%%%%

     stopping ...

 %%%%%%%%%%%%%%%%%%%%%%%%%%%%%%%%%%%%%%%%%%%%%%%%%%%%%%%%%%%%%%%%%%%%%%%%%%%%%%
     Error in routine read_input (2):
     opening input file
 %%%%%%%%%%%%%%%%%%%%%%%%%%%%%%%%%%%%%%%%%%%%%%%%%%%%%%%%%%%%%%%%%%%%%%%%%%%%%%

     stopping ...

 %%%%%%%%%%%%%%%%%%%%%%%%%%%%%%%%%%%%%%%%%%%%%%%%%%%%%%%%%%%%%%%%%%%%%%%%%%%%%%
     Error in routine read_input (2):
     opening input file
 %%%%%%%%%%%%%%%%%%%%%%%%%%%%%%%%%%%%%%%%%%%%%%%%%%%%%%%%%%%%%%%%%%%%%%%%%%%%%%

     stopping ...

 %%%%%%%%%%%%%%%%%%%%%%%%%%%%%%%%%%%%%%%%%%%%%%%%%%%%%%%%%%%%%%%%%%%%%%%%%%%%%%
     Error in routine read_input (2):
     opening input file
 %%%%%%%%%%%%%%%%%%%%%%%%%%%%%%%%%%%%%%%%%%%%%%%%%%%%%%%%%%%%%%%%%%%%%%%%%%%%%%

     stopping ...

 %%%%%%%%%%%%%%%%%%%%%%%%%%%%%%%%%%%%%%%%%%%%%%%%%%%%%%%%%%%%%%%%%%%%%%%%%%%%%%
     Error in routine read_input (2):
     opening input file
 %%%%%%%%%%%%%%%%%%%%%%%%%%%%%%%%%%%%%%%%%%%%%%%%%%%%%%%%%%%%%%%%%%%%%%%%%%%%%%

     stopping ...

 %%%%%%%%%%%%%%%%%%%%%%%%%%%%%%%%%%%%%%%%%%%%%%%%%%%%%%%%%%%%%%%%%%%%%%%%%%%%%%
     Error in routine read_input (2):
     opening input file
 %%%%%%%%%%%%%%%%%%%%%%%%%%%%%%%%%%%%%%%%%%%%%%%%%%%%%%%%%%%%%%%%%%%%%%%%%%%%%%

     stopping ...

 %%%%%%%%%%%%%%%%%%%%%%%%%%%%%%%%%%%%%%%%%%%%%%%%%%%%%%%%%%%%%%%%%%%%%%%%%%%%%%
     Error in routine read_input (2):
     opening input file
 %%%%%%%%%%%%%%%%%%%%%%%%%%%%%%%%%%%%%%%%%%%%%%%%%%%%%%%%%%%%%%%%%%%%%%%%%%%%%%

     stopping ...

 %%%%%%%%%%%%%%%%%%%%%%%%%%%%%%%%%%%%%%%%%%%%%%%%%%%%%%%%%%%%%%%%%%%%%%%%%%%%%%
     Error in routine read_input (2):
     opening input file
 %%%%%%%%%%%%%%%%%%%%%%%%%%%%%%%%%%%%%%%%%%%%%%%%%%%%%%%%%%%%%%%%%%%%%%%%%%%%%%

     stopping ...

 %%%%%%%%%%%%%%%%%%%%%%%%%%%%%%%%%%%%%%%%%%%%%%%%%%%%%%%%%%%%%%%%%%%%%%%%%%%%%%
     Error in routine read_input (2):
     opening input file
 %%%%%%%%%%%%%%%%%%%%%%%%%%%%%%%%%%%%%%%%%%%%%%%%%%%%%%%%%%%%%%%%%%%%%%%%%%%%%%

     stopping ...

 %%%%%%%%%%%%%%%%%%%%%%%%%%%%%%%%%%%%%%%%%%%%%%%%%%%%%%%%%%%%%%%%%%%%%%%%%%%%%%
     Error in routine read_input (2):
     opening input file
 %%%%%%%%%%%%%%%%%%%%%%%%%%%%%%%%%%%%%%%%%%%%%%%%%%%%%%%%%%%%%%%%%%%%%%%%%%%%%%

     stopping ...

===================================================================================
=   BAD TERMINATION OF ONE OF YOUR APPLICATION PROCESSES
=   PID 22487 RUNNING AT rich133-c32-28-l.pace.gatech.edu
=   EXIT CODE: 1
=   CLEANING UP REMAINING PROCESSES
=   YOU CAN IGNORE THE BELOW CLEANUP MESSAGES
===================================================================================
  python dir          : /gpfs/pace1/project/chbe-medford/medford-share/gits/frozen/ben_espresso_8_24_2017/espresso
  espresso dir        : /nv/hp22/amedford6/medford-shared/builds/espresso/5.1.r11289-pybeef/intel-16.0+mvapich2-2.2+mkl-11.3/espresso-5.1.r11289-pybeef/bin
  pseudo dir          : /gpfs/pace1/project/chbe-medford/medford-share/data/pseudos/SSSP_eff_PBE
  ase-espresso py git : GITVERSION



     Program PWSCF v.5.1rc2 starts on  4Oct2018 at 13:38: 6 

     This program is part of the open-source Quantum ESPRESSO suite
     for quantum simulation of materials; please cite
         "P. Giannozzi et al., J. Phys.:Condens. Matter 21 395502 (2009);
          URL http://www.quantum-espresso.org", 
     in publications or presentations arising from this work. More details at
     http://www.quantum-espresso.org/quote

     Parallel version (MPI), running on    14 processors
     R & G space division:  proc/nbgrp/npool/nimage =      14
Open_input_file: error opening pw.inp

 %%%%%%%%%%%%%%%%%%%%%%%%%%%%%%%%%%%%%%%%%%%%%%%%%%%%%%%%%%%%%%%%%%%%%%%%%%%%%%
     Error in routine read_input (2):
     opening input file
 %%%%%%%%%%%%%%%%%%%%%%%%%%%%%%%%%%%%%%%%%%%%%%%%%%%%%%%%%%%%%%%%%%%%%%%%%%%%%%

     stopping ...

 %%%%%%%%%%%%%%%%%%%%%%%%%%%%%%%%%%%%%%%%%%%%%%%%%%%%%%%%%%%%%%%%%%%%%%%%%%%%%%
     Error in routine read_input (2):
     opening input file
 %%%%%%%%%%%%%%%%%%%%%%%%%%%%%%%%%%%%%%%%%%%%%%%%%%%%%%%%%%%%%%%%%%%%%%%%%%%%%%


 %%%%%%%%%%%%%%%%%%%%%%%%%%%%%%%%%%%%%%%%%%%%%%%%%%%%%%%%%%%%%%%%%%%%%%%%%%%%%%
     Error in routine read_input (2):
     opening input file
 %%%%%%%%%%%%%%%%%%%%%%%%%%%%%%%%%%%%%%%%%%%%%%%%%%%%%%%%%%%%%%%%%%%%%%%%%%%%%%

     stopping ...

 %%%%%%%%%%%%%%%%%%%%%%%%%%%%%%%%%%%%%%%%%%%%%%%%%%%%%%%%%%%%%%%%%%%%%%%%%%%%%%
     Error in routine read_input (2):
     opening input file
 %%%%%%%%%%%%%%%%%%%%%%%%%%%%%%%%%%%%%%%%%%%%%%%%%%%%%%%%%%%%%%%%%%%%%%%%%%%%%%

     stopping ...
     stopping ...

 %%%%%%%%%%%%%%%%%%%%%%%%%%%%%%%%%%%%%%%%%%%%%%%%%%%%%%%%%%%%%%%%%%%%%%%%%%%%%%
     Error in routine read_input (2):
     opening input file
 %%%%%%%%%%%%%%%%%%%%%%%%%%%%%%%%%%%%%%%%%%%%%%%%%%%%%%%%%%%%%%%%%%%%%%%%%%%%%%

     stopping ...

 %%%%%%%%%%%%%%%%%%%%%%%%%%%%%%%%%%%%%%%%%%%%%%%%%%%%%%%%%%%%%%%%%%%%%%%%%%%%%%
     Error in routine read_input (2):
     opening input file
 %%%%%%%%%%%%%%%%%%%%%%%%%%%%%%%%%%%%%%%%%%%%%%%%%%%%%%%%%%%%%%%%%%%%%%%%%%%%%%

     stopping ...

 %%%%%%%%%%%%%%%%%%%%%%%%%%%%%%%%%%%%%%%%%%%%%%%%%%%%%%%%%%%%%%%%%%%%%%%%%%%%%%
     Error in routine read_input (2):
     opening input file
 %%%%%%%%%%%%%%%%%%%%%%%%%%%%%%%%%%%%%%%%%%%%%%%%%%%%%%%%%%%%%%%%%%%%%%%%%%%%%%

     stopping ...

 %%%%%%%%%%%%%%%%%%%%%%%%%%%%%%%%%%%%%%%%%%%%%%%%%%%%%%%%%%%%%%%%%%%%%%%%%%%%%%
     Error in routine read_input (2):
     opening input file
 %%%%%%%%%%%%%%%%%%%%%%%%%%%%%%%%%%%%%%%%%%%%%%%%%%%%%%%%%%%%%%%%%%%%%%%%%%%%%%

     stopping ...

 %%%%%%%%%%%%%%%%%%%%%%%%%%%%%%%%%%%%%%%%%%%%%%%%%%%%%%%%%%%%%%%%%%%%%%%%%%%%%%
     Error in routine read_input (2):
     opening input file
 %%%%%%%%%%%%%%%%%%%%%%%%%%%%%%%%%%%%%%%%%%%%%%%%%%%%%%%%%%%%%%%%%%%%%%%%%%%%%%

     stopping ...

 %%%%%%%%%%%%%%%%%%%%%%%%%%%%%%%%%%%%%%%%%%%%%%%%%%%%%%%%%%%%%%%%%%%%%%%%%%%%%%
     Error in routine read_input (2):
     opening input file
 %%%%%%%%%%%%%%%%%%%%%%%%%%%%%%%%%%%%%%%%%%%%%%%%%%%%%%%%%%%%%%%%%%%%%%%%%%%%%%

     stopping ...

 %%%%%%%%%%%%%%%%%%%%%%%%%%%%%%%%%%%%%%%%%%%%%%%%%%%%%%%%%%%%%%%%%%%%%%%%%%%%%%
     Error in routine read_input (2):
     opening input file
 %%%%%%%%%%%%%%%%%%%%%%%%%%%%%%%%%%%%%%%%%%%%%%%%%%%%%%%%%%%%%%%%%%%%%%%%%%%%%%

     stopping ...

 %%%%%%%%%%%%%%%%%%%%%%%%%%%%%%%%%%%%%%%%%%%%%%%%%%%%%%%%%%%%%%%%%%%%%%%%%%%%%%
     Error in routine read_input (2):
     opening input file
 %%%%%%%%%%%%%%%%%%%%%%%%%%%%%%%%%%%%%%%%%%%%%%%%%%%%%%%%%%%%%%%%%%%%%%%%%%%%%%

     stopping ...

 %%%%%%%%%%%%%%%%%%%%%%%%%%%%%%%%%%%%%%%%%%%%%%%%%%%%%%%%%%%%%%%%%%%%%%%%%%%%%%
     Error in routine read_input (2):
     opening input file
 %%%%%%%%%%%%%%%%%%%%%%%%%%%%%%%%%%%%%%%%%%%%%%%%%%%%%%%%%%%%%%%%%%%%%%%%%%%%%%

     stopping ...

===================================================================================
=   BAD TERMINATION OF ONE OF YOUR APPLICATION PROCESSES
=   PID 22866 RUNNING AT rich133-c32-28-l.pace.gatech.edu
=   EXIT CODE: 1
=   CLEANING UP REMAINING PROCESSES
=   YOU CAN IGNORE THE BELOW CLEANUP MESSAGES
===================================================================================
  python dir          : /gpfs/pace1/project/chbe-medford/medford-share/gits/frozen/ben_espresso_8_24_2017/espresso
  espresso dir        : /nv/hp22/amedford6/medford-shared/builds/espresso/5.1.r11289-pybeef/intel-16.0+mvapich2-2.2+mkl-11.3/espresso-5.1.r11289-pybeef/bin
  pseudo dir          : /gpfs/pace1/project/chbe-medford/medford-share/data/pseudos/SSSP_eff_PBE
  ase-espresso py git : GITVERSION



     Program PWSCF v.5.1rc2 starts on  4Oct2018 at 13:38:58 

     This program is part of the open-source Quantum ESPRESSO suite
     for quantum simulation of materials; please cite
         "P. Giannozzi et al., J. Phys.:Condens. Matter 21 395502 (2009);
          URL http://www.quantum-espresso.org", 
     in publications or presentations arising from this work. More details at
     http://www.quantum-espresso.org/quote

     Parallel version (MPI), running on    14 processors
     R & G space division:  proc/nbgrp/npool/nimage =      14
Open_input_file: error opening pw.inp

 %%%%%%%%%%%%%%%%%%%%%%%%%%%%%%%%%%%%%%%%%%%%%%%%%%%%%%%%%%%%%%%%%%%%%%%%%%%%%%
     Error in routine read_input (2):
     opening input file
 %%%%%%%%%%%%%%%%%%%%%%%%%%%%%%%%%%%%%%%%%%%%%%%%%%%%%%%%%%%%%%%%%%%%%%%%%%%%%%

     stopping ...

 %%%%%%%%%%%%%%%%%%%%%%%%%%%%%%%%%%%%%%%%%%%%%%%%%%%%%%%%%%%%%%%%%%%%%%%%%%%%%%
     Error in routine read_input (2):
     opening input file
 %%%%%%%%%%%%%%%%%%%%%%%%%%%%%%%%%%%%%%%%%%%%%%%%%%%%%%%%%%%%%%%%%%%%%%%%%%%%%%

     stopping ...

 %%%%%%%%%%%%%%%%%%%%%%%%%%%%%%%%%%%%%%%%%%%%%%%%%%%%%%%%%%%%%%%%%%%%%%%%%%%%%%
     Error in routine read_input (2):
     opening input file
 %%%%%%%%%%%%%%%%%%%%%%%%%%%%%%%%%%%%%%%%%%%%%%%%%%%%%%%%%%%%%%%%%%%%%%%%%%%%%%

     stopping ...

 %%%%%%%%%%%%%%%%%%%%%%%%%%%%%%%%%%%%%%%%%%%%%%%%%%%%%%%%%%%%%%%%%%%%%%%%%%%%%%
     Error in routine read_input (2):
     opening input file
 %%%%%%%%%%%%%%%%%%%%%%%%%%%%%%%%%%%%%%%%%%%%%%%%%%%%%%%%%%%%%%%%%%%%%%%%%%%%%%

     stopping ...

 %%%%%%%%%%%%%%%%%%%%%%%%%%%%%%%%%%%%%%%%%%%%%%%%%%%%%%%%%%%%%%%%%%%%%%%%%%%%%%
     Error in routine read_input (2):
     opening input file
 %%%%%%%%%%%%%%%%%%%%%%%%%%%%%%%%%%%%%%%%%%%%%%%%%%%%%%%%%%%%%%%%%%%%%%%%%%%%%%

     stopping ...

 %%%%%%%%%%%%%%%%%%%%%%%%%%%%%%%%%%%%%%%%%%%%%%%%%%%%%%%%%%%%%%%%%%%%%%%%%%%%%%
     Error in routine read_input (2):
     opening input file
 %%%%%%%%%%%%%%%%%%%%%%%%%%%%%%%%%%%%%%%%%%%%%%%%%%%%%%%%%%%%%%%%%%%%%%%%%%%%%%

     stopping ...

 %%%%%%%%%%%%%%%%%%%%%%%%%%%%%%%%%%%%%%%%%%%%%%%%%%%%%%%%%%%%%%%%%%%%%%%%%%%%%%
     Error in routine read_input (2):
     opening input file
 %%%%%%%%%%%%%%%%%%%%%%%%%%%%%%%%%%%%%%%%%%%%%%%%%%%%%%%%%%%%%%%%%%%%%%%%%%%%%%

     stopping ...

 %%%%%%%%%%%%%%%%%%%%%%%%%%%%%%%%%%%%%%%%%%%%%%%%%%%%%%%%%%%%%%%%%%%%%%%%%%%%%%
     Error in routine read_input (2):
     opening input file
 %%%%%%%%%%%%%%%%%%%%%%%%%%%%%%%%%%%%%%%%%%%%%%%%%%%%%%%%%%%%%%%%%%%%%%%%%%%%%%

     stopping ...

 %%%%%%%%%%%%%%%%%%%%%%%%%%%%%%%%%%%%%%%%%%%%%%%%%%%%%%%%%%%%%%%%%%%%%%%%%%%%%%
     Error in routine read_input (2):
     opening input file
 %%%%%%%%%%%%%%%%%%%%%%%%%%%%%%%%%%%%%%%%%%%%%%%%%%%%%%%%%%%%%%%%%%%%%%%%%%%%%%

     stopping ...

 %%%%%%%%%%%%%%%%%%%%%%%%%%%%%%%%%%%%%%%%%%%%%%%%%%%%%%%%%%%%%%%%%%%%%%%%%%%%%%
     Error in routine read_input (2):
     opening input file
 %%%%%%%%%%%%%%%%%%%%%%%%%%%%%%%%%%%%%%%%%%%%%%%%%%%%%%%%%%%%%%%%%%%%%%%%%%%%%%

     stopping ...

 %%%%%%%%%%%%%%%%%%%%%%%%%%%%%%%%%%%%%%%%%%%%%%%%%%%%%%%%%%%%%%%%%%%%%%%%%%%%%%
     Error in routine read_input (2):
     opening input file
 %%%%%%%%%%%%%%%%%%%%%%%%%%%%%%%%%%%%%%%%%%%%%%%%%%%%%%%%%%%%%%%%%%%%%%%%%%%%%%

     stopping ...

 %%%%%%%%%%%%%%%%%%%%%%%%%%%%%%%%%%%%%%%%%%%%%%%%%%%%%%%%%%%%%%%%%%%%%%%%%%%%%%
     Error in routine read_input (2):
     opening input file
 %%%%%%%%%%%%%%%%%%%%%%%%%%%%%%%%%%%%%%%%%%%%%%%%%%%%%%%%%%%%%%%%%%%%%%%%%%%%%%

     stopping ...

 %%%%%%%%%%%%%%%%%%%%%%%%%%%%%%%%%%%%%%%%%%%%%%%%%%%%%%%%%%%%%%%%%%%%%%%%%%%%%%
     Error in routine read_input (2):
     opening input file
 %%%%%%%%%%%%%%%%%%%%%%%%%%%%%%%%%%%%%%%%%%%%%%%%%%%%%%%%%%%%%%%%%%%%%%%%%%%%%%

     stopping ...

===================================================================================
=   BAD TERMINATION OF ONE OF YOUR APPLICATION PROCESSES
=   PID 23048 RUNNING AT rich133-c32-28-l.pace.gatech.edu
=   EXIT CODE: 1
=   CLEANING UP REMAINING PROCESSES
=   YOU CAN IGNORE THE BELOW CLEANUP MESSAGES
===================================================================================
  python dir          : /gpfs/pace1/project/chbe-medford/medford-share/gits/frozen/ben_espresso_8_24_2017/espresso
  espresso dir        : /nv/hp22/amedford6/medford-shared/builds/espresso/5.1.r11289-pybeef/intel-16.0+mvapich2-2.2+mkl-11.3/espresso-5.1.r11289-pybeef/bin
  pseudo dir          : /gpfs/pace1/project/chbe-medford/medford-share/data/pseudos/SSSP_eff_PBE
  ase-espresso py git : GITVERSION



     Program PWSCF v.5.1rc2 starts on  4Oct2018 at 13:39:49 

     This program is part of the open-source Quantum ESPRESSO suite
     for quantum simulation of materials; please cite
         "P. Giannozzi et al., J. Phys.:Condens. Matter 21 395502 (2009);
          URL http://www.quantum-espresso.org", 
     in publications or presentations arising from this work. More details at
     http://www.quantum-espresso.org/quote

     Parallel version (MPI), running on    14 processors
     R & G space division:  proc/nbgrp/npool/nimage =      14
Open_input_file: error opening pw.inp

 %%%%%%%%%%%%%%%%%%%%%%%%%%%%%%%%%%%%%%%%%%%%%%%%%%%%%%%%%%%%%%%%%%%%%%%%%%%%%%
     Error in routine read_input (2):
     opening input file
 %%%%%%%%%%%%%%%%%%%%%%%%%%%%%%%%%%%%%%%%%%%%%%%%%%%%%%%%%%%%%%%%%%%%%%%%%%%%%%

     stopping ...

 %%%%%%%%%%%%%%%%%%%%%%%%%%%%%%%%%%%%%%%%%%%%%%%%%%%%%%%%%%%%%%%%%%%%%%%%%%%%%%

 %%%%%%%%%%%%%%%%%%%%%%%%%%%%%%%%%%%%%%%%%%%%%%%%%%%%%%%%%%%%%%%%%%%%%%%%%%%%%%
     Error in routine read_input (2):
     opening input file
 %%%%%%%%%%%%%%%%%%%%%%%%%%%%%%%%%%%%%%%%%%%%%%%%%%%%%%%%%%%%%%%%%%%%%%%%%%%%%%

     stopping ...

 %%%%%%%%%%%%%%%%%%%%%%%%%%%%%%%%%%%%%%%%%%%%%%%%%%%%%%%%%%%%%%%%%%%%%%%%%%%%%%
     Error in routine read_input (2):
     opening input file
 %%%%%%%%%%%%%%%%%%%%%%%%%%%%%%%%%%%%%%%%%%%%%%%%%%%%%%%%%%%%%%%%%%%%%%%%%%%%%%

     stopping ...

 %%%%%%%%%%%%%%%%%%%%%%%%%%%%%%%%%%%%%%%%%%%%%%%%%%%%%%%%%%%%%%%%%%%%%%%%%%%%%%
     Error in routine read_input (2):
     opening input file
 %%%%%%%%%%%%%%%%%%%%%%%%%%%%%%%%%%%%%%%%%%%%%%%%%%%%%%%%%%%%%%%%%%%%%%%%%%%%%%

     stopping ...

 %%%%%%%%%%%%%%%%%%%%%%%%%%%%%%%%%%%%%%%%%%%%%%%%%%%%%%%%%%%%%%%%%%%%%%%%%%%%%%
     Error in routine read_input (2):
     opening input file
 %%%%%%%%%%%%%%%%%%%%%%%%%%%%%%%%%%%%%%%%%%%%%%%%%%%%%%%%%%%%%%%%%%%%%%%%%%%%%%

     stopping ...

 %%%%%%%%%%%%%%%%%%%%%%%%%%%%%%%%%%%%%%%%%%%%%%%%%%%%%%%%%%%%%%%%%%%%%%%%%%%%%%
     Error in routine read_input (2):
     opening input file
 %%%%%%%%%%%%%%%%%%%%%%%%%%%%%%%%%%%%%%%%%%%%%%%%%%%%%%%%%%%%%%%%%%%%%%%%%%%%%%

     stopping ...

 %%%%%%%%%%%%%%%%%%%%%%%%%%%%%%%%%%%%%%%%%%%%%%%%%%%%%%%%%%%%%%%%%%%%%%%%%%%%%%
     Error in routine read_input (2):
     opening input file
 %%%%%%%%%%%%%%%%%%%%%%%%%%%%%%%%%%%%%%%%%%%%%%%%%%%%%%%%%%%%%%%%%%%%%%%%%%%%%%

     stopping ...
     Error in routine read_input (2):
     opening input file
 %%%%%%%%%%%%%%%%%%%%%%%%%%%%%%%%%%%%%%%%%%%%%%%%%%%%%%%%%%%%%%%%%%%%%%%%%%%%%%

     stopping ...

 %%%%%%%%%%%%%%%%%%%%%%%%%%%%%%%%%%%%%%%%%%%%%%%%%%%%%%%%%%%%%%%%%%%%%%%%%%%%%%
     Error in routine read_input (2):
     opening input file
 %%%%%%%%%%%%%%%%%%%%%%%%%%%%%%%%%%%%%%%%%%%%%%%%%%%%%%%%%%%%%%%%%%%%%%%%%%%%%%

     stopping ...

 %%%%%%%%%%%%%%%%%%%%%%%%%%%%%%%%%%%%%%%%%%%%%%%%%%%%%%%%%%%%%%%%%%%%%%%%%%%%%%
     Error in routine read_input (2):
     opening input file
 %%%%%%%%%%%%%%%%%%%%%%%%%%%%%%%%%%%%%%%%%%%%%%%%%%%%%%%%%%%%%%%%%%%%%%%%%%%%%%

     stopping ...

 %%%%%%%%%%%%%%%%%%%%%%%%%%%%%%%%%%%%%%%%%%%%%%%%%%%%%%%%%%%%%%%%%%%%%%%%%%%%%%
     Error in routine read_input (2):
     opening input file
 %%%%%%%%%%%%%%%%%%%%%%%%%%%%%%%%%%%%%%%%%%%%%%%%%%%%%%%%%%%%%%%%%%%%%%%%%%%%%%

     stopping ...

 %%%%%%%%%%%%%%%%%%%%%%%%%%%%%%%%%%%%%%%%%%%%%%%%%%%%%%%%%%%%%%%%%%%%%%%%%%%%%%
     Error in routine read_input (2):
     opening input file
 %%%%%%%%%%%%%%%%%%%%%%%%%%%%%%%%%%%%%%%%%%%%%%%%%%%%%%%%%%%%%%%%%%%%%%%%%%%%%%

     stopping ...

 %%%%%%%%%%%%%%%%%%%%%%%%%%%%%%%%%%%%%%%%%%%%%%%%%%%%%%%%%%%%%%%%%%%%%%%%%%%%%%
     Error in routine read_input (2):
     opening input file
 %%%%%%%%%%%%%%%%%%%%%%%%%%%%%%%%%%%%%%%%%%%%%%%%%%%%%%%%%%%%%%%%%%%%%%%%%%%%%%

     stopping ...

 %%%%%%%%%%%%%%%%%%%%%%%%%%%%%%%%%%%%%%%%%%%%%%%%%%%%%%%%%%%%%%%%%%%%%%%%%%%%%%
     Error in routine read_input (2):
     opening input file
 %%%%%%%%%%%%%%%%%%%%%%%%%%%%%%%%%%%%%%%%%%%%%%%%%%%%%%%%%%%%%%%%%%%%%%%%%%%%%%

     stopping ...

===================================================================================
=   BAD TERMINATION OF ONE OF YOUR APPLICATION PROCESSES
=   PID 23431 RUNNING AT rich133-c32-28-l.pace.gatech.edu
=   EXIT CODE: 1
=   CLEANING UP REMAINING PROCESSES
=   YOU CAN IGNORE THE BELOW CLEANUP MESSAGES
===================================================================================
